;Run parameters
integrator	= md		; leap-frog integrator
nsteps		= 1000
dt		= 0.001		; 2 fs

; Output control
nstxout-compressed = 100        ; save coordinates in compressed xtc format
nstxout            = 100
nstvout            = 100
nstfout            = 100
nstenergy          = 100          ; save energies every 1.0 ps
nstlog             = 100           ; update log file every 1.0 ps

; Bond parameters
continuation	        = yes		; Restarting after NVT 
constraint_algorithm  = lincs	; holonomic constraints 
constraints	        = none	; all bonds (even heavy atom-H bonds) constrained
lincs_iter	        = 1		    ; accuracy of LINCS
lincs_order	        = 4		    ; also related to accuracy

; Neighborsearching
cutoff-scheme       = Verlet
ns_type		    = grid	      	; search neighboring grid cells
nstlist		    = 10	          ; 20 fs, largely irrelevant with Verlet scheme
rcoulomb	    = 1.4	        	; short-range electrostatic cutoff (in nm)
rvdw		    = 1.4		          ; short-range van der Waals cutoff (in nm)

; Electrostatics
coulombtype	    = PME		; Particle Mesh Ewald for long-range electrostatics
pme_order	    = 4		    ; cubic interpolation
fourierspacing      = 0.12		; grid spacing for FFT


; Temperature coupling is on
tcoupl		= nose-hoover  ; v-rescale             ; modified Berendsen thermostat
tc-grps         = System
tau-t		= 0.4	        ; time constant, in ps
ref-t		= 298.0	        ; reference temperature, one for each group, in K


; Pressure coupling is on
pcoupl		        = Parrinello-Rahman                 ; Pressure coupling on in NPT
pcoupltype	        = isotropic	            ; uniform scaling of box vectors
tau_p		        = 10.0		            ; time constant, in ps
ref_p		        = 1.0		            ; reference pressure, in bar
compressibility         = 4.5e-5	            ; isothermal compressibility of water, bar^-1
refcoord_scaling        = com


; Periodic boundary conditions
pbc		         = xyz		; 3-D PBC
; Dispersion correction
DispCorr	         = EnerPres	; account for cut-off vdW scheme
; Velocity generation
gen_vel		         = no		; Velocity generation is on 
