; Created by Sobtop (http://sobereva.com/soft/sobtop) Version 1.0(dev5) on 2025-02-12

[ defaults ]
; nbfunc        comb-rule       gen-pairs       fudgeLJ    fudgeQQ
     1              2              yes            0.5       0.8333

[ atomtypes ]
; name   at.num      mass       charge   ptype     sigma (nm)    epsilon (kJ/mol)
na           7    14.006703    0.000000    A      3.249999E-01    7.112800E-01
c2           6    12.010736    0.000000    A      3.399670E-01    3.598240E-01
ca           6    12.010736    0.000000    A      3.399670E-01    3.598240E-01
n            7    14.006703    0.000000    A      3.249999E-01    7.112800E-01
c            6    12.010736    0.000000    A      3.399670E-01    3.598240E-01
o            8    15.999405    0.000000    A      2.959922E-01    8.786400E-01
c3           6    12.010736    0.000000    A      3.399670E-01    4.577296E-01
f            9    18.998403    0.000000    A      3.118146E-01    2.552240E-01
h1           1     1.007941    0.000000    A      2.471353E-01    6.568880E-02
h4           1     1.007941    0.000000    A      2.510553E-01    6.276000E-02
ha           1     1.007941    0.000000    A      2.599642E-01    6.276000E-02
hn           1     1.007941    0.000000    A      1.069078E-01    6.568880E-02

CZ    CZ    6      12.01100     0.700       A    2.8000e-01  2.24500e-01       ; TraPPE force field 
OZ    OZ    8      15.99940    -0.350       A    3.0500e-01  6.56800e-01       ; TraPPE force field

CH4   CH4   8      16.04000     0.000       A    3.7300e-01  12.3054e-01       ; TraPPE force field
NN    NN    6      14.00670    -0.482       A    3.3100e-01  2.99321e-01       ; TraPPE force field 
IN    IN    0       0.00000     0.964       D    0.0000e-01  0.00000e-01       ; TraPPE force field

P     P   15     30.974       1.34           A    0.3740       0.8368    ;modified by Lopes and Padua
B     B   5      10.81000     1.176          A    3.58100e-01  3.92750e-01 ; Prado et al.;Chaban et al.
F     F   9      18.998      -0.39           A    0.3120       0.2552    ;modified by Lopes and Padua

CA  CA       12.01100     -0.17       A    0.350  0.27614 ; SIG
CB  CB       12.01100      0.01       A    0.350  0.27614 ; SIG
CR  CR       12.01100     -0.11       A    0.355  0.29288 ; SIG
CS  CS       12.01100     -0.12       A    0.350  0.27614 ; SIG
CT  CT       12.01100     -0.18       A    0.350  0.27614 ; SIG
CW  CW       12.01100     -0.13       A    0.355  0.29288 ; SIG
HA  HA        1.00800      0.21       A    0.242  0.12552 ; SIG
HC  HC        1.00800      0.06       A    0.250  0.12552 ; SIG
HB  HB        1.00800      0.13       A    0.250  0.12552 ; SIG
NA  NA       14.00670      0.15       A    0.325  0.71128 ; SIG

N98    N98  7      14.00670    -0.660       A    3.25000e-01  7.11280e-01
S91    S91 16      32.06000     1.020       A    3.55000e-01  1.04600
S99    S99 16      32.06000     1.020       A    3.55000e-01  1.04600
O92    O92  8      15.99940    -0.530       A    2.96000e-01  8.78640e-01
O93    O93  8      15.99940    -0.530       A    2.96000e-01  8.78640e-01
O910  O910  8      15.99940    -0.530       A    2.96000e-01  8.78640e-01
O911  O911  8      15.99940    -0.530       A    2.96000e-01  8.78640e-01
F95    F95  9      18.99840    -0.160       A    2.95000e-01  2.21750e-01
F96    F96  9      18.99840    -0.160       A    2.95000e-01  2.21750e-01
F97    F97  9      18.99840    -0.160       A    2.95000e-01  2.21750e-01
F913  F913  9      18.99840    -0.160       A    2.95000e-01  2.21750e-01
F914  F914  9      18.99840    -0.160       A    2.95000e-01  2.21750e-01
F915  F915  9      18.99840    -0.160       A    2.95000e-01  2.21750e-01
C9Z   C9Z   6      12.01100     0.350       A    3.50000e-01  2.76140e-01
N94   N94   7      14.00670    -0.563       A    3.25000e-01  7.11280e-01

Li    Li   3      6.94100     1.000       A    1.25992e-01  2.61500e+01
Cl    Cl  17     35.45300    -1.000       A    3.65000e-01  8.30000e-01  ;modified by Lopes and Padua

 C81   CT_3     6     12.01100    -0.114       A    3.50000e-01  2.76144e-01 ; opls_245
 H85   HC	1      1.00800     0.074       A    2.50000e-01  1.25520e-01 ; opls_140
 H86   HC	1      1.00800     0.072       A    2.50000e-01  1.25520e-01 ; opls_140
 C82   CT	6     12.01100    -0.054       A    3.50000e-01  2.76144e-01 ; opls_136
 H81   HC	1      1.00800     0.050       A    2.50000e-01  1.25520e-01 ; opls_140
 H82   HC	1      1.00800     0.054       A    2.50000e-01  1.25520e-01 ; opls_140
 C83   CT	6     12.01100    -0.263       A    3.50000e-01  2.76144e-01 ; opls_136
 H83   HC	1      1.00800     0.105       A    2.50000e-01  1.25520e-01 ; opls_140
 H84   HC	1      1.00800     0.101       A    2.50000e-01  1.25520e-01 ; opls_140
 C84   C        6     12.01100     0.535       A    3.75000e-01  4.39320e-01 ; opls_235
 O81   O        8     15.99940    -0.592       A    2.96000e-01  8.78640e-01 ; opls_236
 N81   N        7     14.00670     0.002       A    3.25000e-01  7.11280e-01 ; opls_239
 C85   CT       6     12.01100    -0.373       A    3.50000e-01  2.76144e-01 ; opls_243
 H87   HC	1      1.00800     0.161       A    2.50000e-01  1.25520e-01 ; opls_140
 H88   HC	1      1.00800     0.120       A    2.50000e-01  1.25520e-01 ; opls_140
 H89   HC	1      1.00800     0.122       A    2.50000e-01  1.25520e-01 ; opls_140

[ moleculetype ]
; name          nrexcl
C_2PIM20       3

; Atomic charges are those loaded from .mol2 file
[ atoms ]
;  Index   type   residue  resname   atom        cgnr     charge       mass
     1     na         1      MOL    N1              1     0.19290043      14.006703     ; qtot 0.193 
     2     na         1      MOL    N2              2     0.14879494      14.006703     ; qtot 0.342 
     3     c2         1      MOL    C1              3     0.18109658      12.010736     ; qtot 0.523 
     4     ca         1      MOL    C2              4     0.09988006      12.010736     ; qtot 0.623 
     5     ca         1      MOL    C3              5    -0.12472416      12.010736     ; qtot 0.498 
     6     ca         1      MOL    C4              6    -0.37670997      12.010736     ; qtot 0.121 
     7     ca         1      MOL    C5              7     0.42410536      12.010736     ; qtot 0.545 
     8     ca         1      MOL    C6              8    -0.35912031      12.010736     ; qtot 0.186 
     9     ca         1      MOL    C7              9    -0.12200639      12.010736     ; qtot 0.064 
    10     n          1      MOL    N3             10    -0.40653626      14.006703     ; qtot -0.342
    11     c          1      MOL    C8             11     0.81371513      12.010736     ; qtot 0.471 
    12     ca         1      MOL    C9             12    -0.14818601      12.010736     ; qtot 0.323 
    13     ca         1      MOL    C10            13    -0.05821468      12.010736     ; qtot 0.265 
    14     c          1      MOL    C11            14     0.76683414      12.010736     ; qtot 1.032 
    15     o          1      MOL    O1             15    -0.66724479      15.999405     ; qtot 0.365 
    16     ca         1      MOL    C12            16    -0.12717142      12.010736     ; qtot 0.237 
    17     ca         1      MOL    C13            17     0.23202956      12.010736     ; qtot 0.469 
    18     ca         1      MOL    C14            18    -0.12600997      12.010736     ; qtot 0.343 
    19     ca         1      MOL    C15            19    -0.19370283      12.010736     ; qtot 0.150 
    20     ca         1      MOL    C16            20     0.25288698      12.010736     ; qtot 0.403 
    21     ca         1      MOL    C17            21    -0.17901797      12.010736     ; qtot 0.224 
    22     ca         1      MOL    C18            22    -0.10354150      12.010736     ; qtot 0.120 
    23     ca         1      MOL    C19            23    -0.11956495      12.010736     ; qtot 0.000 
    24     ca         1      MOL    C20            24    -0.08617917      12.010736     ; qtot -0.086
    25     ca         1      MOL    C21            25    -0.21430383      12.010736     ; qtot -0.300
    26     c3         1      MOL    C22            26    -0.52525105      12.010736     ; qtot -0.825
    27     c3         1      MOL    C23            27     0.69688454      12.010736     ; qtot -0.128
    28     f          1      MOL    F1             28    -0.21727244      18.998403     ; qtot -0.346
    29     f          1      MOL    F2             29    -0.20444625      18.998403     ; qtot -0.550
    30     f          1      MOL    F3             30    -0.21630880      18.998403     ; qtot -0.766
    31     c3         1      MOL    C24            31     0.69767290      12.010736     ; qtot -0.069
    32     f          1      MOL    F4             32    -0.22042657      18.998403     ; qtot -0.289
    33     f          1      MOL    F5             33    -0.20630183      18.998403     ; qtot -0.495
    34     f          1      MOL    F6             34    -0.21466058      18.998403     ; qtot -0.710
    35     o          1      MOL    O2             35    -0.69756052      15.999405     ; qtot -1.408
    36     c          1      MOL    C25            36     0.88891905      12.010736     ; qtot -0.519
    37     n          1      MOL    N4             37    -0.78619212      14.006703     ; qtot -1.305
    38     c          1      MOL    C26            38     0.90807527      12.010736     ; qtot -0.397
    39     o          1      MOL    O3             39    -0.74816420      15.999405     ; qtot -1.145
    40     ca         1      MOL    C27            40     0.09326384      12.010736     ; qtot -1.052
    41     ca         1      MOL    C28            41    -0.15737622      12.010736     ; qtot -1.209
    42     ca         1      MOL    C29            42    -0.17934704      12.010736     ; qtot -1.388
    43     ca         1      MOL    C30            43    -0.15614409      12.010736     ; qtot -1.545
    44     ca         1      MOL    C31            44    -0.14656743      12.010736     ; qtot -1.691
    45     ca         1      MOL    C32            45     0.09041700      12.010736     ; qtot -1.601
    46     c2         1      MOL    C33            46     0.16344373      12.010736     ; qtot -1.437
    47     na         1      MOL    N5             47     0.04827003      14.006703     ; qtot -1.389
    48     na         1      MOL    N6             48     0.31769869      14.006703     ; qtot -1.071
    49     c2         1      MOL    C34            49    -0.19960142      12.010736     ; qtot -1.271
    50     c2         1      MOL    C35            50    -0.07463554      12.010736     ; qtot -1.346
    51     c3         1      MOL    C36            51    -0.62463812      12.010736     ; qtot -1.970
    52     h1         1      MOL    H1             52     0.26548602       1.007941     ; qtot -1.705
    53     h1         1      MOL    H2             53     0.26548602       1.007941     ; qtot -1.439
    54     h1         1      MOL    H3             54     0.26548602       1.007941     ; qtot -1.174
    55     ca         1      MOL    C37            55     0.24922520      12.010736     ; qtot -0.925
    56     ca         1      MOL    C38            56    -0.20187393      12.010736     ; qtot -1.126
    57     ca         1      MOL    C39            57    -0.18318068      12.010736     ; qtot -1.310
    58     ca         1      MOL    C40            58    -0.14751308      12.010736     ; qtot -1.457
    59     ca         1      MOL    C41            59    -0.18527476      12.010736     ; qtot -1.642
    60     ca         1      MOL    C42            60    -0.20374249      12.010736     ; qtot -1.846
    61     c3         1      MOL    C43            61     0.69893174      12.010736     ; qtot -1.147
    62     f          1      MOL    F7             62    -0.22692695      18.998403     ; qtot -1.374
    63     f          1      MOL    F8             63    -0.20559847      18.998403     ; qtot -1.580
    64     f          1      MOL    F9             64    -0.22899252      18.998403     ; qtot -1.809
    65     c2         1      MOL    C44            65    -0.23924053      12.010736     ; qtot -2.048
    66     c2         1      MOL    C45            66    -0.03572039      12.010736     ; qtot -2.084
    67     c3         1      MOL    C46            67     0.70750889      12.010736     ; qtot -1.376
    68     f          1      MOL    F10            68    -0.23202665      18.998403     ; qtot -1.608
    69     f          1      MOL    F11            69    -0.20560469      18.998403     ; qtot -1.814
    70     h4         1      MOL    H4             70     0.32341270       1.007941     ; qtot -1.490
    71     ha         1      MOL    H5             71     0.21935405       1.007941     ; qtot -1.271
    72     ha         1      MOL    H6             72     0.27883421       1.007941     ; qtot -0.992
    73     ha         1      MOL    H7             73     0.20173056       1.007941     ; qtot -0.790
    74     ha         1      MOL    H8             74     0.27100244       1.007941     ; qtot -0.519
    75     ha         1      MOL    H9             75     0.18693139       1.007941     ; qtot -0.333
    76     ha         1      MOL    H10            76     0.20366112       1.007941     ; qtot -0.129
    77     ha         1      MOL    H11            77     0.22038259       1.007941     ; qtot 0.091 
    78     ha         1      MOL    H12            78     0.19973813       1.007941     ; qtot 0.291 
    79     ha         1      MOL    H13            79     0.19099797       1.007941     ; qtot 0.482 
    80     ha         1      MOL    H14            80     0.22121783       1.007941     ; qtot 0.703 
    81     o          1      MOL    O4             81    -0.73915253      15.999405     ; qtot -0.036
    82     ha         1      MOL    H15            82     0.20252401       1.007941     ; qtot 0.167 
    83     ha         1      MOL    H16            83     0.21932308       1.007941     ; qtot 0.386 
    84     ha         1      MOL    H17            84     0.22608478       1.007941     ; qtot 0.612 
    85     ha         1      MOL    H18            85     0.21367359       1.007941     ; qtot 0.826 
    86     ha         1      MOL    H19            86     0.19989100       1.007941     ; qtot 1.026 
    87     ha         1      MOL    H20            87     0.19836987       1.007941     ; qtot 1.224 
    88     ha         1      MOL    H21            88     0.21153706       1.007941     ; qtot 1.436 
    89     ha         1      MOL    H22            89     0.21349288       1.007941     ; qtot 1.649 
    90     h4         1      MOL    H23            90     0.30829781       1.007941     ; qtot 1.957 
    91     ha         1      MOL    H24            91     0.20429578       1.007941     ; qtot 2.162 
    92     f          1      MOL    F12            92    -0.23083548      18.998403     ; qtot 1.931 
    93     c3         1      MOL    C47            93    -0.40929592      12.010736     ; qtot 1.522 
    94     h1         1      MOL    H25            94     0.22048164       1.007941     ; qtot 1.742 
    95     h1         1      MOL    H26            95     0.22048164       1.007941     ; qtot 1.963 
    96     h1         1      MOL    H27            96     0.22048164       1.007941     ; qtot 2.183 
    97     na         1      MOL    N1             97     0.52710368      14.006703     ; qtot 2.710 
    98     na         1      MOL    N2             98     0.19290043      14.006703     ; qtot 2.903 
    99     c2         1      MOL    C1             99     0.14879494      12.010736     ; qtot 3.052 
   100     ca         1      MOL    C2            100     0.18109658      12.010736     ; qtot 3.233 
   101     ca         1      MOL    C3            101     0.09988006      12.010736     ; qtot 3.333 
   102     ca         1      MOL    C4            102    -0.12472416      12.010736     ; qtot 3.208 
   103     ca         1      MOL    C5            103    -0.37670997      12.010736     ; qtot 2.831 
   104     ca         1      MOL    C6            104     0.42410536      12.010736     ; qtot 3.256 
   105     ca         1      MOL    C7            105    -0.35912031      12.010736     ; qtot 2.896 
   106     n          1      MOL    N3            106    -0.12200639      14.006703     ; qtot 2.774 
   107     c          1      MOL    C8            107    -0.40653626      12.010736     ; qtot 2.368 
   108     ca         1      MOL    C9            108     0.81371513      12.010736     ; qtot 3.182 
   109     ca         1      MOL    C10           109    -0.14818601      12.010736     ; qtot 3.033 
   110     c          1      MOL    C11           110    -0.05821468      12.010736     ; qtot 2.975 
   111     o          1      MOL    O1            111     0.76683414      15.999405     ; qtot 3.742 
   112     ca         1      MOL    C12           112    -0.66724479      12.010736     ; qtot 3.075 
   113     ca         1      MOL    C13           113    -0.12717142      12.010736     ; qtot 2.948 
   114     ca         1      MOL    C14           114     0.23202956      12.010736     ; qtot 3.180 
   115     ca         1      MOL    C15           115    -0.12600997      12.010736     ; qtot 3.054 
   116     ca         1      MOL    C16           116    -0.19370283      12.010736     ; qtot 2.860 
   117     ca         1      MOL    C17           117     0.25288698      12.010736     ; qtot 3.113 
   118     ca         1      MOL    C18           118    -0.17901797      12.010736     ; qtot 2.934 
   119     ca         1      MOL    C19           119    -0.10354150      12.010736     ; qtot 2.830 
   120     ca         1      MOL    C20           120    -0.11956495      12.010736     ; qtot 2.711 
   121     ca         1      MOL    C21           121    -0.08617917      12.010736     ; qtot 2.625 
   122     c3         1      MOL    C22           122    -0.21430383      12.010736     ; qtot 2.410 
   123     c3         1      MOL    C23           123    -0.52525105      12.010736     ; qtot 1.885 
   124     f          1      MOL    F1            124     0.69688454      18.998403     ; qtot 2.582 
   125     f          1      MOL    F2            125    -0.21727244      18.998403     ; qtot 2.365 
   126     f          1      MOL    F3            126    -0.20444625      18.998403     ; qtot 2.160 
   127     c3         1      MOL    C24           127    -0.21630880      12.010736     ; qtot 1.944 
   128     f          1      MOL    F4            128     0.69767290      18.998403     ; qtot 2.641 
   129     f          1      MOL    F5            129    -0.22042657      18.998403     ; qtot 2.421 
   130     f          1      MOL    F6            130    -0.20630183      18.998403     ; qtot 2.215 
   131     o          1      MOL    O2            131    -0.21466058      15.999405     ; qtot 2.000 
   132     c          1      MOL    C25           132    -0.69756052      12.010736     ; qtot 1.303 
   133     n          1      MOL    N4            133     0.88891905      14.006703     ; qtot 2.191 
   134     c          1      MOL    C26           134    -0.78619212      12.010736     ; qtot 1.405 
   135     o          1      MOL    O3            135     0.90807527      15.999405     ; qtot 2.313 
   136     ca         1      MOL    C27           136    -0.74816420      12.010736     ; qtot 1.565 
   137     ca         1      MOL    C28           137     0.09326384      12.010736     ; qtot 1.658 
   138     ca         1      MOL    C29           138    -0.15737622      12.010736     ; qtot 1.501 
   139     ca         1      MOL    C30           139    -0.17934704      12.010736     ; qtot 1.322 
   140     ca         1      MOL    C31           140    -0.15614409      12.010736     ; qtot 1.166 
   141     ca         1      MOL    C32           141    -0.14656743      12.010736     ; qtot 1.019 
   142     c2         1      MOL    C33           142     0.09041700      12.010736     ; qtot 1.109 
   143     na         1      MOL    N5            143     0.16344373      14.006703     ; qtot 1.273 
   144     na         1      MOL    N6            144     0.04827003      14.006703     ; qtot 1.321 
   145     c2         1      MOL    C34           145     0.31769869      12.010736     ; qtot 1.639 
   146     c2         1      MOL    C35           146    -0.19960142      12.010736     ; qtot 1.439 
   147     c3         1      MOL    C36           147    -0.07463554      12.010736     ; qtot 1.365 
   148     h1         1      MOL    H1            148    -0.62463812       1.007941     ; qtot 0.740 
   149     h1         1      MOL    H2            149     0.26548602       1.007941     ; qtot 1.005 
   150     h1         1      MOL    H3            150     0.26548602       1.007941     ; qtot 1.271 
   151     ca         1      MOL    C37           151     0.26548602      12.010736     ; qtot 1.536 
   152     ca         1      MOL    C38           152     0.24922520      12.010736     ; qtot 1.786 
   153     ca         1      MOL    C39           153    -0.20187393      12.010736     ; qtot 1.584 
   154     ca         1      MOL    C40           154    -0.18318068      12.010736     ; qtot 1.401 
   155     ca         1      MOL    C41           155    -0.14751308      12.010736     ; qtot 1.253 
   156     ca         1      MOL    C42           156    -0.18527476      12.010736     ; qtot 1.068 
   157     c3         1      MOL    C43           157    -0.20374249      12.010736     ; qtot 0.864 
   158     f          1      MOL    F7            158     0.69893174      18.998403     ; qtot 1.563 
   159     f          1      MOL    F8            159    -0.22692695      18.998403     ; qtot 1.336 
   160     f          1      MOL    F9            160    -0.20559847      18.998403     ; qtot 1.130 
   161     c2         1      MOL    C44           161    -0.22899252      12.010736     ; qtot 0.901 
   162     c2         1      MOL    C45           162    -0.23924053      12.010736     ; qtot 0.662 
   163     c3         1      MOL    C46           163    -0.03572039      12.010736     ; qtot 0.627 
   164     f          1      MOL    F10           164     0.70750889      18.998403     ; qtot 1.334 
   165     f          1      MOL    F11           165    -0.23202665      18.998403     ; qtot 1.102 
   166     h4         1      MOL    H4            166    -0.20560469       1.007941     ; qtot 0.896 
   167     ha         1      MOL    H5            167     0.32341270       1.007941     ; qtot 1.220 
   168     ha         1      MOL    H6            168     0.21935405       1.007941     ; qtot 1.439 
   169     ha         1      MOL    H7            169     0.27883421       1.007941     ; qtot 1.718 
   170     ha         1      MOL    H8            170     0.20173056       1.007941     ; qtot 1.920 
   171     ha         1      MOL    H9            171     0.27100244       1.007941     ; qtot 2.191 
   172     ha         1      MOL    H10           172     0.18693139       1.007941     ; qtot 2.378 
   173     ha         1      MOL    H11           173     0.20366112       1.007941     ; qtot 2.581 
   174     ha         1      MOL    H12           174     0.22038259       1.007941     ; qtot 2.802 
   175     ha         1      MOL    H13           175     0.19973813       1.007941     ; qtot 3.001 
   176     ha         1      MOL    H14           176     0.19099797       1.007941     ; qtot 3.192 
   177     o          1      MOL    O4            177     0.22121783      15.999405     ; qtot 3.414 
   178     ha         1      MOL    H15           178    -0.73915253       1.007941     ; qtot 2.675 
   179     ha         1      MOL    H16           179     0.20252401       1.007941     ; qtot 2.877 
   180     ha         1      MOL    H17           180     0.21932308       1.007941     ; qtot 3.096 
   181     ha         1      MOL    H18           181     0.22608478       1.007941     ; qtot 3.322 
   182     ha         1      MOL    H19           182     0.21367359       1.007941     ; qtot 3.536 
   183     ha         1      MOL    H20           183     0.19989100       1.007941     ; qtot 3.736 
   184     ha         1      MOL    H21           184     0.19836987       1.007941     ; qtot 3.934 
   185     h4         1      MOL    H22           185     0.21153706       1.007941     ; qtot 4.146 
   186     ha         1      MOL    H23           186     0.21349288       1.007941     ; qtot 4.359 
   187     f          1      MOL    F12           187     0.30829781      18.998403     ; qtot 4.668 
   188     c3         1      MOL    C47           188     0.20429578      12.010736     ; qtot 4.872 
   189     h1         1      MOL    H24           189    -0.23083548       1.007941     ; qtot 4.641 
   190     h1         1      MOL    H25           190    -0.40929592       1.007941     ; qtot 4.232 
   191     h1         1      MOL    H26           191     0.22048164       1.007941     ; qtot 4.452 
   192     na         1      MOL    N1            192     0.22048164      14.006703     ; qtot 4.673 
   193     na         1      MOL    N2            193     0.19290043      14.006703     ; qtot 4.866 
   194     c2         1      MOL    C1            194     0.14879494      12.010736     ; qtot 5.015 
   195     ca         1      MOL    C2            195     0.18109658      12.010736     ; qtot 5.196 
   196     ca         1      MOL    C3            196     0.09988006      12.010736     ; qtot 5.295 
   197     ca         1      MOL    C4            197    -0.12472416      12.010736     ; qtot 5.171 
   198     ca         1      MOL    C5            198    -0.37670997      12.010736     ; qtot 4.794 
   199     ca         1      MOL    C6            199     0.42410536      12.010736     ; qtot 5.218 
   200     ca         1      MOL    C7            200    -0.35912031      12.010736     ; qtot 4.859 
   201     n          1      MOL    N3            201    -0.12200639      14.006703     ; qtot 4.737 
   202     c          1      MOL    C8            202    -0.40653626      12.010736     ; qtot 4.331 
   203     ca         1      MOL    C9            203     0.81371513      12.010736     ; qtot 5.144 
   204     ca         1      MOL    C10           204    -0.14818601      12.010736     ; qtot 4.996 
   205     c          1      MOL    C11           205    -0.05821468      12.010736     ; qtot 4.938 
   206     o          1      MOL    O1            206     0.76683414      15.999405     ; qtot 5.705 
   207     ca         1      MOL    C12           207    -0.66724479      12.010736     ; qtot 5.037 
   208     ca         1      MOL    C13           208    -0.12717142      12.010736     ; qtot 4.910 
   209     ca         1      MOL    C14           209     0.23202956      12.010736     ; qtot 5.142 
   210     ca         1      MOL    C15           210    -0.12600997      12.010736     ; qtot 5.016 
   211     ca         1      MOL    C16           211    -0.19370283      12.010736     ; qtot 4.823 
   212     ca         1      MOL    C17           212     0.25288698      12.010736     ; qtot 5.075 
   213     ca         1      MOL    C18           213    -0.17901797      12.010736     ; qtot 4.896 
   214     ca         1      MOL    C19           214    -0.10354150      12.010736     ; qtot 4.793 
   215     ca         1      MOL    C20           215    -0.11956495      12.010736     ; qtot 4.673 
   216     ca         1      MOL    C21           216    -0.08617917      12.010736     ; qtot 4.587 
   217     c3         1      MOL    C22           217    -0.21430383      12.010736     ; qtot 4.373 
   218     c3         1      MOL    C23           218    -0.52525105      12.010736     ; qtot 3.848 
   219     f          1      MOL    F1            219     0.69688454      18.998403     ; qtot 4.544 
   220     f          1      MOL    F2            220    -0.21727244      18.998403     ; qtot 4.327 
   221     f          1      MOL    F3            221    -0.20444625      18.998403     ; qtot 4.123 
   222     c3         1      MOL    C24           222    -0.21630880      12.010736     ; qtot 3.906 
   223     f          1      MOL    F4            223     0.69767290      18.998403     ; qtot 4.604 
   224     f          1      MOL    F5            224    -0.22042657      18.998403     ; qtot 4.384 
   225     f          1      MOL    F6            225    -0.20630183      18.998403     ; qtot 4.177 
   226     o          1      MOL    O2            226    -0.21466058      15.999405     ; qtot 3.963 
   227     c          1      MOL    C25           227    -0.69756052      12.010736     ; qtot 3.265 
   228     n          1      MOL    N4            228     0.88891905      14.006703     ; qtot 4.154 
   229     c          1      MOL    C26           229    -0.78619212      12.010736     ; qtot 3.368 
   230     o          1      MOL    O3            230     0.90807527      15.999405     ; qtot 4.276 
   231     ca         1      MOL    C27           231    -0.74816420      12.010736     ; qtot 3.528 
   232     ca         1      MOL    C28           232     0.09326384      12.010736     ; qtot 3.621 
   233     ca         1      MOL    C29           233    -0.15737622      12.010736     ; qtot 3.464 
   234     ca         1      MOL    C30           234    -0.17934704      12.010736     ; qtot 3.284 
   235     ca         1      MOL    C31           235    -0.15614409      12.010736     ; qtot 3.128 
   236     ca         1      MOL    C32           236    -0.14656743      12.010736     ; qtot 2.982 
   237     c2         1      MOL    C33           237     0.09041700      12.010736     ; qtot 3.072 
   238     na         1      MOL    N5            238     0.16344373      14.006703     ; qtot 3.235 
   239     na         1      MOL    N6            239     0.04827003      14.006703     ; qtot 3.284 
   240     c2         1      MOL    C34           240     0.31769869      12.010736     ; qtot 3.601 
   241     c2         1      MOL    C35           241    -0.19960142      12.010736     ; qtot 3.402 
   242     c3         1      MOL    C36           242    -0.07463554      12.010736     ; qtot 3.327 
   243     h1         1      MOL    H1            243    -0.62463812       1.007941     ; qtot 2.703 
   244     h1         1      MOL    H2            244     0.26548602       1.007941     ; qtot 2.968 
   245     h1         1      MOL    H3            245     0.26548602       1.007941     ; qtot 3.234 
   246     ca         1      MOL    C37           246     0.26548602      12.010736     ; qtot 3.499 
   247     ca         1      MOL    C38           247     0.24922520      12.010736     ; qtot 3.748 
   248     ca         1      MOL    C39           248    -0.20187393      12.010736     ; qtot 3.546 
   249     ca         1      MOL    C40           249    -0.18318068      12.010736     ; qtot 3.363 
   250     ca         1      MOL    C41           250    -0.14751308      12.010736     ; qtot 3.216 
   251     ca         1      MOL    C42           251    -0.18527476      12.010736     ; qtot 3.030 
   252     c3         1      MOL    C43           252    -0.20374249      12.010736     ; qtot 2.827 
   253     f          1      MOL    F7            253     0.69893174      18.998403     ; qtot 3.526 
   254     f          1      MOL    F8            254    -0.22692695      18.998403     ; qtot 3.299 
   255     f          1      MOL    F9            255    -0.20559847      18.998403     ; qtot 3.093 
   256     c2         1      MOL    C44           256    -0.22899252      12.010736     ; qtot 2.864 
   257     c2         1      MOL    C45           257    -0.23924053      12.010736     ; qtot 2.625 
   258     c3         1      MOL    C46           258    -0.03572039      12.010736     ; qtot 2.589 
   259     f          1      MOL    F10           259     0.70750889      18.998403     ; qtot 3.297 
   260     f          1      MOL    F11           260    -0.23202665      18.998403     ; qtot 3.065 
   261     h4         1      MOL    H4            261    -0.20560469       1.007941     ; qtot 2.859 
   262     ha         1      MOL    H5            262     0.32341270       1.007941     ; qtot 3.182 
   263     ha         1      MOL    H6            263     0.21935405       1.007941     ; qtot 3.402 
   264     ha         1      MOL    H7            264     0.27883421       1.007941     ; qtot 3.681 
   265     ha         1      MOL    H8            265     0.20173056       1.007941     ; qtot 3.882 
   266     ha         1      MOL    H9            266     0.27100244       1.007941     ; qtot 4.153 
   267     ha         1      MOL    H10           267     0.18693139       1.007941     ; qtot 4.340 
   268     ha         1      MOL    H11           268     0.20366112       1.007941     ; qtot 4.544 
   269     ha         1      MOL    H12           269     0.22038259       1.007941     ; qtot 4.764 
   270     ha         1      MOL    H13           270     0.19973813       1.007941     ; qtot 4.964 
   271     ha         1      MOL    H14           271     0.19099797       1.007941     ; qtot 5.155 
   272     o          1      MOL    O4            272     0.22121783      15.999405     ; qtot 5.376 
   273     ha         1      MOL    H15           273    -0.73915253       1.007941     ; qtot 4.637 
   274     ha         1      MOL    H16           274     0.20252401       1.007941     ; qtot 4.840 
   275     ha         1      MOL    H17           275     0.21932308       1.007941     ; qtot 5.059 
   276     ha         1      MOL    H18           276     0.22608478       1.007941     ; qtot 5.285 
   277     ha         1      MOL    H19           277     0.21367359       1.007941     ; qtot 5.499 
   278     ha         1      MOL    H20           278     0.19989100       1.007941     ; qtot 5.699 
   279     ha         1      MOL    H21           279     0.19836987       1.007941     ; qtot 5.897 
   280     h4         1      MOL    H22           280     0.21153706       1.007941     ; qtot 6.109 
   281     ha         1      MOL    H23           281     0.21349288       1.007941     ; qtot 6.322 
   282     f          1      MOL    F12           282     0.30829781      18.998403     ; qtot 6.630 
   283     c3         1      MOL    C47           283     0.20429578      12.010736     ; qtot 6.835 
   284     h1         1      MOL    H24           284    -0.23083548       1.007941     ; qtot 6.604 
   285     h1         1      MOL    H25           285    -0.40929592       1.007941     ; qtot 6.194 
   286     h1         1      MOL    H26           286     0.22048164       1.007941     ; qtot 6.415 
   287     na         1      MOL    N1            287     0.22048164      14.006703     ; qtot 6.635 
   288     na         1      MOL    N2            288     0.19290043      14.006703     ; qtot 6.828 
   289     c2         1      MOL    C1            289     0.14879494      12.010736     ; qtot 6.977 
   290     ca         1      MOL    C2            290     0.18109658      12.010736     ; qtot 7.158 
   291     ca         1      MOL    C3            291     0.09988006      12.010736     ; qtot 7.258 
   292     ca         1      MOL    C4            292    -0.12472416      12.010736     ; qtot 7.133 
   293     ca         1      MOL    C5            293    -0.37670997      12.010736     ; qtot 6.757 
   294     ca         1      MOL    C6            294     0.42410536      12.010736     ; qtot 7.181 
   295     ca         1      MOL    C7            295    -0.35912031      12.010736     ; qtot 6.822 
   296     n          1      MOL    N3            296    -0.12200639      14.006703     ; qtot 6.700 
   297     c          1      MOL    C8            297    -0.40653626      12.010736     ; qtot 6.293 
   298     ca         1      MOL    C9            298     0.81371513      12.010736     ; qtot 7.107 
   299     ca         1      MOL    C10           299    -0.14818601      12.010736     ; qtot 6.959 
   300     c          1      MOL    C11           300    -0.05821468      12.010736     ; qtot 6.900 
   301     o          1      MOL    O1            301     0.76683414      15.999405     ; qtot 7.667 
   302     ca         1      MOL    C12           302    -0.66724479      12.010736     ; qtot 7.000 
   303     ca         1      MOL    C13           303    -0.12717142      12.010736     ; qtot 6.873 
   304     ca         1      MOL    C14           304     0.23202956      12.010736     ; qtot 7.105 
   305     ca         1      MOL    C15           305    -0.12600997      12.010736     ; qtot 6.979 
   306     ca         1      MOL    C16           306    -0.19370283      12.010736     ; qtot 6.785 
   307     ca         1      MOL    C17           307     0.25288698      12.010736     ; qtot 7.038 
   308     ca         1      MOL    C18           308    -0.17901797      12.010736     ; qtot 6.859 
   309     ca         1      MOL    C19           309    -0.10354150      12.010736     ; qtot 6.756 
   310     ca         1      MOL    C20           310    -0.11956495      12.010736     ; qtot 6.636 
   311     ca         1      MOL    C21           311    -0.08617917      12.010736     ; qtot 6.550 
   312     c3         1      MOL    C22           312    -0.21430383      12.010736     ; qtot 6.335 
   313     c3         1      MOL    C23           313    -0.52525105      12.010736     ; qtot 5.810 
   314     f          1      MOL    F1            314     0.69688454      18.998403     ; qtot 6.507 
   315     f          1      MOL    F2            315    -0.21727244      18.998403     ; qtot 6.290 
   316     f          1      MOL    F3            316    -0.20444625      18.998403     ; qtot 6.085 
   317     c3         1      MOL    C24           317    -0.21630880      12.010736     ; qtot 5.869 
   318     f          1      MOL    F4            318     0.69767290      18.998403     ; qtot 6.567 
   319     f          1      MOL    F5            319    -0.22042657      18.998403     ; qtot 6.346 
   320     f          1      MOL    F6            320    -0.20630183      18.998403     ; qtot 6.140 
   321     o          1      MOL    O2            321    -0.21466058      15.999405     ; qtot 5.925 
   322     c          1      MOL    C25           322    -0.69756052      12.010736     ; qtot 5.228 
   323     n          1      MOL    N4            323     0.88891905      14.006703     ; qtot 6.117 
   324     c          1      MOL    C26           324    -0.78619212      12.010736     ; qtot 5.331 
   325     o          1      MOL    O3            325     0.90807527      15.999405     ; qtot 6.239 
   326     ca         1      MOL    C27           326    -0.74816420      12.010736     ; qtot 5.490 
   327     ca         1      MOL    C28           327     0.09326384      12.010736     ; qtot 5.584 
   328     ca         1      MOL    C29           328    -0.15737622      12.010736     ; qtot 5.426 
   329     ca         1      MOL    C30           329    -0.17934704      12.010736     ; qtot 5.247 
   330     ca         1      MOL    C31           330    -0.15614409      12.010736     ; qtot 5.091 
   331     ca         1      MOL    C32           331    -0.14656743      12.010736     ; qtot 4.944 
   332     c2         1      MOL    C33           332     0.09041700      12.010736     ; qtot 5.035 
   333     na         1      MOL    N5            333     0.16344373      14.006703     ; qtot 5.198 
   334     na         1      MOL    N6            334     0.04827003      14.006703     ; qtot 5.246 
   335     c2         1      MOL    C34           335     0.31769869      12.010736     ; qtot 5.564 
   336     c2         1      MOL    C35           336    -0.19960142      12.010736     ; qtot 5.364 
   337     c3         1      MOL    C36           337    -0.07463554      12.010736     ; qtot 5.290 
   338     h1         1      MOL    H1            338    -0.62463812       1.007941     ; qtot 4.665 
   339     h1         1      MOL    H2            339     0.26548602       1.007941     ; qtot 4.931 
   340     h1         1      MOL    H3            340     0.26548602       1.007941     ; qtot 5.196 
   341     ca         1      MOL    C37           341     0.26548602      12.010736     ; qtot 5.462 
   342     ca         1      MOL    C38           342     0.24922520      12.010736     ; qtot 5.711 
   343     ca         1      MOL    C39           343    -0.20187393      12.010736     ; qtot 5.509 
   344     ca         1      MOL    C40           344    -0.18318068      12.010736     ; qtot 5.326 
   345     ca         1      MOL    C41           345    -0.14751308      12.010736     ; qtot 5.178 
   346     ca         1      MOL    C42           346    -0.18527476      12.010736     ; qtot 4.993 
   347     c3         1      MOL    C43           347    -0.20374249      12.010736     ; qtot 4.789 
   348     f          1      MOL    F7            348     0.69893174      18.998403     ; qtot 5.488 
   349     f          1      MOL    F8            349    -0.22692695      18.998403     ; qtot 5.261 
   350     f          1      MOL    F9            350    -0.20559847      18.998403     ; qtot 5.056 
   351     c2         1      MOL    C44           351    -0.22899252      12.010736     ; qtot 4.827 
   352     c2         1      MOL    C45           352    -0.23924053      12.010736     ; qtot 4.587 
   353     c3         1      MOL    C46           353    -0.03572039      12.010736     ; qtot 4.552 
   354     f          1      MOL    F10           354     0.70750889      18.998403     ; qtot 5.259 
   355     f          1      MOL    F11           355    -0.23202665      18.998403     ; qtot 5.027 
   356     h4         1      MOL    H4            356    -0.20560469       1.007941     ; qtot 4.822 
   357     ha         1      MOL    H5            357     0.32341270       1.007941     ; qtot 5.145 
   358     ha         1      MOL    H6            358     0.21935405       1.007941     ; qtot 5.364 
   359     ha         1      MOL    H7            359     0.27883421       1.007941     ; qtot 5.643 
   360     ha         1      MOL    H8            360     0.20173056       1.007941     ; qtot 5.845 
   361     ha         1      MOL    H9            361     0.27100244       1.007941     ; qtot 6.116 
   362     ha         1      MOL    H10           362     0.18693139       1.007941     ; qtot 6.303 
   363     ha         1      MOL    H11           363     0.20366112       1.007941     ; qtot 6.507 
   364     ha         1      MOL    H12           364     0.22038259       1.007941     ; qtot 6.727 
   365     ha         1      MOL    H13           365     0.19973813       1.007941     ; qtot 6.927 
   366     ha         1      MOL    H14           366     0.19099797       1.007941     ; qtot 7.118 
   367     o          1      MOL    O4            367     0.22121783      15.999405     ; qtot 7.339 
   368     ha         1      MOL    H15           368    -0.73915253       1.007941     ; qtot 6.600 
   369     ha         1      MOL    H16           369     0.20252401       1.007941     ; qtot 6.802 
   370     ha         1      MOL    H17           370     0.21932308       1.007941     ; qtot 7.022 
   371     ha         1      MOL    H18           371     0.22608478       1.007941     ; qtot 7.248 
   372     ha         1      MOL    H19           372     0.21367359       1.007941     ; qtot 7.461 
   373     ha         1      MOL    H20           373     0.19989100       1.007941     ; qtot 7.661 
   374     ha         1      MOL    H21           374     0.19836987       1.007941     ; qtot 7.860 
   375     h4         1      MOL    H22           375     0.21153706       1.007941     ; qtot 8.071 
   376     ha         1      MOL    H23           376     0.21349288       1.007941     ; qtot 8.285 
   377     f          1      MOL    F12           377     0.30829781      18.998403     ; qtot 8.593 
   378     c3         1      MOL    C47           378     0.20429578      12.010736     ; qtot 8.797 
   379     h1         1      MOL    H24           379    -0.23083548       1.007941     ; qtot 8.566 
   380     h1         1      MOL    H25           380    -0.40929592       1.007941     ; qtot 8.157 
   381     h1         1      MOL    H26           381     0.22048164       1.007941     ; qtot 8.378 
   382     na         1      MOL    N1            382     0.22048164      14.006703     ; qtot 8.598 
   383     na         1      MOL    N2            383     0.19290043      14.006703     ; qtot 8.791 
   384     c2         1      MOL    C1            384     0.14879494      12.010736     ; qtot 8.940 
   385     ca         1      MOL    C2            385     0.18109658      12.010736     ; qtot 9.121 
   386     ca         1      MOL    C3            386     0.09988006      12.010736     ; qtot 9.221 
   387     ca         1      MOL    C4            387    -0.12472416      12.010736     ; qtot 9.096 
   388     ca         1      MOL    C5            388    -0.37670997      12.010736     ; qtot 8.719 
   389     ca         1      MOL    C6            389     0.42410536      12.010736     ; qtot 9.143 
   390     ca         1      MOL    C7            390    -0.35912031      12.010736     ; qtot 8.784 
   391     n          1      MOL    N3            391    -0.12200639      14.006703     ; qtot 8.662 
   392     c          1      MOL    C8            392    -0.40653626      12.010736     ; qtot 8.256 
   393     ca         1      MOL    C9            393     0.81371513      12.010736     ; qtot 9.069 
   394     ca         1      MOL    C10           394    -0.14818601      12.010736     ; qtot 8.921 
   395     c          1      MOL    C11           395    -0.05821468      12.010736     ; qtot 8.863 
   396     o          1      MOL    O1            396     0.76683414      15.999405     ; qtot 9.630 
   397     ca         1      MOL    C12           397    -0.66724479      12.010736     ; qtot 8.963 
   398     ca         1      MOL    C13           398    -0.12717142      12.010736     ; qtot 8.835 
   399     ca         1      MOL    C14           399     0.23202956      12.010736     ; qtot 9.068 
   400     ca         1      MOL    C15           400    -0.12600997      12.010736     ; qtot 8.942 
   401     ca         1      MOL    C16           401    -0.19370283      12.010736     ; qtot 8.748 
   402     ca         1      MOL    C17           402     0.25288698      12.010736     ; qtot 9.001 
   403     ca         1      MOL    C18           403    -0.17901797      12.010736     ; qtot 8.822 
   404     ca         1      MOL    C19           404    -0.10354150      12.010736     ; qtot 8.718 
   405     ca         1      MOL    C20           405    -0.11956495      12.010736     ; qtot 8.599 
   406     ca         1      MOL    C21           406    -0.08617917      12.010736     ; qtot 8.512 
   407     c3         1      MOL    C22           407    -0.21430383      12.010736     ; qtot 8.298 
   408     c3         1      MOL    C23           408    -0.52525105      12.010736     ; qtot 7.773 
   409     f          1      MOL    F1            409     0.69688454      18.998403     ; qtot 8.470 
   410     f          1      MOL    F2            410    -0.21727244      18.998403     ; qtot 8.252 
   411     f          1      MOL    F3            411    -0.20444625      18.998403     ; qtot 8.048 
   412     c3         1      MOL    C24           412    -0.21630880      12.010736     ; qtot 7.832 
   413     f          1      MOL    F4            413     0.69767290      18.998403     ; qtot 8.529 
   414     f          1      MOL    F5            414    -0.22042657      18.998403     ; qtot 8.309 
   415     f          1      MOL    F6            415    -0.20630183      18.998403     ; qtot 8.103 
   416     o          1      MOL    O2            416    -0.21466058      15.999405     ; qtot 7.888 
   417     c          1      MOL    C25           417    -0.69756052      12.010736     ; qtot 7.190 
   418     n          1      MOL    N4            418     0.88891905      14.006703     ; qtot 8.079 
   419     c          1      MOL    C26           419    -0.78619212      12.010736     ; qtot 7.293 
   420     o          1      MOL    O3            420     0.90807527      15.999405     ; qtot 8.201 
   421     ca         1      MOL    C27           421    -0.74816420      12.010736     ; qtot 7.453 
   422     ca         1      MOL    C28           422     0.09326384      12.010736     ; qtot 7.546 
   423     ca         1      MOL    C29           423    -0.15737622      12.010736     ; qtot 7.389 
   424     ca         1      MOL    C30           424    -0.17934704      12.010736     ; qtot 7.210 
   425     ca         1      MOL    C31           425    -0.15614409      12.010736     ; qtot 7.053 
   426     ca         1      MOL    C32           426    -0.14656743      12.010736     ; qtot 6.907 
   427     c2         1      MOL    C33           427     0.09041700      12.010736     ; qtot 6.997 
   428     na         1      MOL    N5            428     0.16344373      14.006703     ; qtot 7.161 
   429     na         1      MOL    N6            429     0.04827003      14.006703     ; qtot 7.209 
   430     c2         1      MOL    C34           430     0.31769869      12.010736     ; qtot 7.527 
   431     c2         1      MOL    C35           431    -0.19960142      12.010736     ; qtot 7.327 
   432     c3         1      MOL    C36           432    -0.07463554      12.010736     ; qtot 7.252 
   433     h1         1      MOL    H1            433    -0.62463812       1.007941     ; qtot 6.628 
   434     h1         1      MOL    H2            434     0.26548602       1.007941     ; qtot 6.893 
   435     h1         1      MOL    H3            435     0.26548602       1.007941     ; qtot 7.159 
   436     ca         1      MOL    C37           436     0.26548602      12.010736     ; qtot 7.424 
   437     ca         1      MOL    C38           437     0.24922520      12.010736     ; qtot 7.674 
   438     ca         1      MOL    C39           438    -0.20187393      12.010736     ; qtot 7.472 
   439     ca         1      MOL    C40           439    -0.18318068      12.010736     ; qtot 7.288 
   440     ca         1      MOL    C41           440    -0.14751308      12.010736     ; qtot 7.141 
   441     ca         1      MOL    C42           441    -0.18527476      12.010736     ; qtot 6.956 
   442     c3         1      MOL    C43           442    -0.20374249      12.010736     ; qtot 6.752 
   443     f          1      MOL    F7            443     0.69893174      18.998403     ; qtot 7.451 
   444     f          1      MOL    F8            444    -0.22692695      18.998403     ; qtot 7.224 
   445     f          1      MOL    F9            445    -0.20559847      18.998403     ; qtot 7.018 
   446     c2         1      MOL    C44           446    -0.22899252      12.010736     ; qtot 6.789 
   447     c2         1      MOL    C45           447    -0.23924053      12.010736     ; qtot 6.550 
   448     c3         1      MOL    C46           448    -0.03572039      12.010736     ; qtot 6.514 
   449     f          1      MOL    F10           449     0.70750889      18.998403     ; qtot 7.222 
   450     f          1      MOL    F11           450    -0.23202665      18.998403     ; qtot 6.990 
   451     h4         1      MOL    H4            451    -0.20560469       1.007941     ; qtot 6.784 
   452     ha         1      MOL    H5            452     0.32341270       1.007941     ; qtot 7.108 
   453     ha         1      MOL    H6            453     0.21935405       1.007941     ; qtot 7.327 
   454     ha         1      MOL    H7            454     0.27883421       1.007941     ; qtot 7.606 
   455     ha         1      MOL    H8            455     0.20173056       1.007941     ; qtot 7.808 
   456     ha         1      MOL    H9            456     0.27100244       1.007941     ; qtot 8.079 
   457     ha         1      MOL    H10           457     0.18693139       1.007941     ; qtot 8.266 
   458     ha         1      MOL    H11           458     0.20366112       1.007941     ; qtot 8.469 
   459     ha         1      MOL    H12           459     0.22038259       1.007941     ; qtot 8.690 
   460     ha         1      MOL    H13           460     0.19973813       1.007941     ; qtot 8.889 
   461     ha         1      MOL    H14           461     0.19099797       1.007941     ; qtot 9.080 
   462     o          1      MOL    O4            462     0.22121783      15.999405     ; qtot 9.302 
   463     ha         1      MOL    H15           463    -0.73915253       1.007941     ; qtot 8.562 
   464     ha         1      MOL    H16           464     0.20252401       1.007941     ; qtot 8.765 
   465     ha         1      MOL    H17           465     0.21932308       1.007941     ; qtot 8.984 
   466     ha         1      MOL    H18           466     0.22608478       1.007941     ; qtot 9.210 
   467     ha         1      MOL    H19           467     0.21367359       1.007941     ; qtot 9.424 
   468     ha         1      MOL    H20           468     0.19989100       1.007941     ; qtot 9.624 
   469     ha         1      MOL    H21           469     0.19836987       1.007941     ; qtot 9.822 
   470     h4         1      MOL    H22           470     0.21153706       1.007941     ; qtot 10.034
   471     ha         1      MOL    H23           471     0.21349288       1.007941     ; qtot 10.247
   472     f          1      MOL    F12           472     0.30829781      18.998403     ; qtot 10.556
   473     c3         1      MOL    C47           473     0.20429578      12.010736     ; qtot 10.760
   474     h1         1      MOL    H24           474    -0.23083548       1.007941     ; qtot 10.529
   475     h1         1      MOL    H25           475    -0.40929592       1.007941     ; qtot 10.120
   476     h1         1      MOL    H26           476     0.22048164       1.007941     ; qtot 10.340
   477     na         1      MOL    N1            477     0.22048164      14.006703     ; qtot 10.561
   478     na         1      MOL    N2            478     0.19290043      14.006703     ; qtot 10.754
   479     c2         1      MOL    C1            479     0.14879494      12.010736     ; qtot 10.902
   480     ca         1      MOL    C2            480     0.18109658      12.010736     ; qtot 11.083
   481     ca         1      MOL    C3            481     0.09988006      12.010736     ; qtot 11.183
   482     ca         1      MOL    C4            482    -0.12472416      12.010736     ; qtot 11.059
   483     ca         1      MOL    C5            483    -0.37670997      12.010736     ; qtot 10.682
   484     ca         1      MOL    C6            484     0.42410536      12.010736     ; qtot 11.106
   485     ca         1      MOL    C7            485    -0.35912031      12.010736     ; qtot 10.747
   486     n          1      MOL    N3            486    -0.12200639      14.006703     ; qtot 10.625
   487     c          1      MOL    C8            487    -0.40653626      12.010736     ; qtot 10.218
   488     ca         1      MOL    C9            488     0.81371513      12.010736     ; qtot 11.032
   489     ca         1      MOL    C10           489    -0.14818601      12.010736     ; qtot 10.884
   490     c          1      MOL    C11           490    -0.05821468      12.010736     ; qtot 10.826
   491     o          1      MOL    O1            491     0.76683414      15.999405     ; qtot 11.593
   492     ca         1      MOL    C12           492    -0.66724479      12.010736     ; qtot 10.925
   493     ca         1      MOL    C13           493    -0.12717142      12.010736     ; qtot 10.798
   494     ca         1      MOL    C14           494     0.23202956      12.010736     ; qtot 11.030
   495     ca         1      MOL    C15           495    -0.12600997      12.010736     ; qtot 10.904
   496     ca         1      MOL    C16           496    -0.19370283      12.010736     ; qtot 10.710
   497     ca         1      MOL    C17           497     0.25288698      12.010736     ; qtot 10.963
   498     ca         1      MOL    C18           498    -0.17901797      12.010736     ; qtot 10.784
   499     ca         1      MOL    C19           499    -0.10354150      12.010736     ; qtot 10.681
   500     ca         1      MOL    C20           500    -0.11956495      12.010736     ; qtot 10.561
   501     ca         1      MOL    C21           501    -0.08617917      12.010736     ; qtot 10.475
   502     c3         1      MOL    C22           502    -0.21430383      12.010736     ; qtot 10.261
   503     c3         1      MOL    C23           503    -0.52525105      12.010736     ; qtot 9.735 
   504     f          1      MOL    F1            504     0.69688454      18.998403     ; qtot 10.432
   505     f          1      MOL    F2            505    -0.21727244      18.998403     ; qtot 10.215
   506     f          1      MOL    F3            506    -0.20444625      18.998403     ; qtot 10.011
   507     c3         1      MOL    C24           507    -0.21630880      12.010736     ; qtot 9.794 
   508     f          1      MOL    F4            508     0.69767290      18.998403     ; qtot 10.492
   509     f          1      MOL    F5            509    -0.22042657      18.998403     ; qtot 10.272
   510     f          1      MOL    F6            510    -0.20630183      18.998403     ; qtot 10.065
   511     o          1      MOL    O2            511    -0.21466058      15.999405     ; qtot 9.851 
   512     c          1      MOL    C25           512    -0.69756052      12.010736     ; qtot 9.153 
   513     n          1      MOL    N4            513     0.88891905      14.006703     ; qtot 10.042
   514     c          1      MOL    C26           514    -0.78619212      12.010736     ; qtot 9.256 
   515     o          1      MOL    O3            515     0.90807527      15.999405     ; qtot 10.164
   516     ca         1      MOL    C27           516    -0.74816420      12.010736     ; qtot 9.416 
   517     ca         1      MOL    C28           517     0.09326384      12.010736     ; qtot 9.509 
   518     ca         1      MOL    C29           518    -0.15737622      12.010736     ; qtot 9.352 
   519     ca         1      MOL    C30           519    -0.17934704      12.010736     ; qtot 9.172 
   520     ca         1      MOL    C31           520    -0.15614409      12.010736     ; qtot 9.016 
   521     ca         1      MOL    C32           521    -0.14656743      12.010736     ; qtot 8.869 
   522     c2         1      MOL    C33           522     0.09041700      12.010736     ; qtot 8.960 
   523     na         1      MOL    N5            523     0.16344373      14.006703     ; qtot 9.123 
   524     na         1      MOL    N6            524     0.04827003      14.006703     ; qtot 9.172 
   525     c2         1      MOL    C34           525     0.31769869      12.010736     ; qtot 9.489 
   526     c2         1      MOL    C35           526    -0.19960142      12.010736     ; qtot 9.290 
   527     c3         1      MOL    C36           527    -0.07463554      12.010736     ; qtot 9.215 
   528     h1         1      MOL    H1            528    -0.62463812       1.007941     ; qtot 8.590 
   529     h1         1      MOL    H2            529     0.26548602       1.007941     ; qtot 8.856 
   530     h1         1      MOL    H3            530     0.26548602       1.007941     ; qtot 9.121 
   531     ca         1      MOL    C37           531     0.26548602      12.010736     ; qtot 9.387 
   532     ca         1      MOL    C38           532     0.24922520      12.010736     ; qtot 9.636 
   533     ca         1      MOL    C39           533    -0.20187393      12.010736     ; qtot 9.434 
   534     ca         1      MOL    C40           534    -0.18318068      12.010736     ; qtot 9.251 
   535     ca         1      MOL    C41           535    -0.14751308      12.010736     ; qtot 9.104 
   536     ca         1      MOL    C42           536    -0.18527476      12.010736     ; qtot 8.918 
   537     c3         1      MOL    C43           537    -0.20374249      12.010736     ; qtot 8.715 
   538     f          1      MOL    F7            538     0.69893174      18.998403     ; qtot 9.413 
   539     f          1      MOL    F8            539    -0.22692695      18.998403     ; qtot 9.187 
   540     f          1      MOL    F9            540    -0.20559847      18.998403     ; qtot 8.981 
   541     c2         1      MOL    C44           541    -0.22899252      12.010736     ; qtot 8.752 
   542     c2         1      MOL    C45           542    -0.23924053      12.010736     ; qtot 8.513 
   543     c3         1      MOL    C46           543    -0.03572039      12.010736     ; qtot 8.477 
   544     f          1      MOL    F10           544     0.70750889      18.998403     ; qtot 9.185 
   545     f          1      MOL    F11           545    -0.23202665      18.998403     ; qtot 8.952 
   546     h4         1      MOL    H4            546    -0.20560469       1.007941     ; qtot 8.747 
   547     ha         1      MOL    H5            547     0.32341270       1.007941     ; qtot 9.070 
   548     ha         1      MOL    H6            548     0.21935405       1.007941     ; qtot 9.290 
   549     ha         1      MOL    H7            549     0.27883421       1.007941     ; qtot 9.568 
   550     ha         1      MOL    H8            550     0.20173056       1.007941     ; qtot 9.770 
   551     ha         1      MOL    H9            551     0.27100244       1.007941     ; qtot 10.041
   552     ha         1      MOL    H10           552     0.18693139       1.007941     ; qtot 10.228
   553     ha         1      MOL    H11           553     0.20366112       1.007941     ; qtot 10.432
   554     ha         1      MOL    H12           554     0.22038259       1.007941     ; qtot 10.652
   555     ha         1      MOL    H13           555     0.19973813       1.007941     ; qtot 10.852
   556     ha         1      MOL    H14           556     0.19099797       1.007941     ; qtot 11.043
   557     o          1      MOL    O4            557     0.22121783      15.999405     ; qtot 11.264
   558     ha         1      MOL    H15           558    -0.73915253       1.007941     ; qtot 10.525
   559     ha         1      MOL    H16           559     0.20252401       1.007941     ; qtot 10.728
   560     ha         1      MOL    H17           560     0.21932308       1.007941     ; qtot 10.947
   561     ha         1      MOL    H18           561     0.22608478       1.007941     ; qtot 11.173
   562     ha         1      MOL    H19           562     0.21367359       1.007941     ; qtot 11.387
   563     ha         1      MOL    H20           563     0.19989100       1.007941     ; qtot 11.586
   564     ha         1      MOL    H21           564     0.19836987       1.007941     ; qtot 11.785
   565     h4         1      MOL    H22           565     0.21153706       1.007941     ; qtot 11.996
   566     ha         1      MOL    H23           566     0.21349288       1.007941     ; qtot 12.210
   567     f          1      MOL    F12           567     0.30829781      18.998403     ; qtot 12.518
   568     c3         1      MOL    C47           568     0.20429578      12.010736     ; qtot 12.722
   569     h1         1      MOL    H24           569    -0.23083548       1.007941     ; qtot 12.492
   570     h1         1      MOL    H25           570    -0.40929592       1.007941     ; qtot 12.082
   571     h1         1      MOL    H26           571     0.22048164       1.007941     ; qtot 12.303
   572     na         1      MOL    N1            572     0.22048164      14.006703     ; qtot 12.523
   573     na         1      MOL    N2            573     0.19290043      14.006703     ; qtot 12.716
   574     c2         1      MOL    C1            574     0.14879494      12.010736     ; qtot 12.865
   575     ca         1      MOL    C2            575     0.18109658      12.010736     ; qtot 13.046
   576     ca         1      MOL    C3            576     0.09988006      12.010736     ; qtot 13.146
   577     ca         1      MOL    C4            577    -0.12472416      12.010736     ; qtot 13.021
   578     ca         1      MOL    C5            578    -0.37670997      12.010736     ; qtot 12.645
   579     ca         1      MOL    C6            579     0.42410536      12.010736     ; qtot 13.069
   580     ca         1      MOL    C7            580    -0.35912031      12.010736     ; qtot 12.710
   581     n          1      MOL    N3            581    -0.12200639      14.006703     ; qtot 12.588
   582     c          1      MOL    C8            582    -0.40653626      12.010736     ; qtot 12.181
   583     ca         1      MOL    C9            583     0.81371513      12.010736     ; qtot 12.995
   584     ca         1      MOL    C10           584    -0.14818601      12.010736     ; qtot 12.847
   585     c          1      MOL    C11           585    -0.05821468      12.010736     ; qtot 12.788
   586     o          1      MOL    O1            586     0.76683414      15.999405     ; qtot 13.555
   587     ca         1      MOL    C12           587    -0.66724479      12.010736     ; qtot 12.888
   588     ca         1      MOL    C13           588    -0.12717142      12.010736     ; qtot 12.761
   589     ca         1      MOL    C14           589     0.23202956      12.010736     ; qtot 12.993
   590     ca         1      MOL    C15           590    -0.12600997      12.010736     ; qtot 12.867
   591     ca         1      MOL    C16           591    -0.19370283      12.010736     ; qtot 12.673
   592     ca         1      MOL    C17           592     0.25288698      12.010736     ; qtot 12.926
   593     ca         1      MOL    C18           593    -0.17901797      12.010736     ; qtot 12.747
   594     ca         1      MOL    C19           594    -0.10354150      12.010736     ; qtot 12.643
   595     ca         1      MOL    C20           595    -0.11956495      12.010736     ; qtot 12.524
   596     ca         1      MOL    C21           596    -0.08617917      12.010736     ; qtot 12.438
   597     c3         1      MOL    C22           597    -0.21430383      12.010736     ; qtot 12.223
   598     c3         1      MOL    C23           598    -0.52525105      12.010736     ; qtot 11.698
   599     f          1      MOL    F1            599     0.69688454      18.998403     ; qtot 12.395
   600     f          1      MOL    F2            600    -0.21727244      18.998403     ; qtot 12.178
   601     f          1      MOL    F3            601    -0.20444625      18.998403     ; qtot 11.973
   602     c3         1      MOL    C24           602    -0.21630880      12.010736     ; qtot 11.757
   603     f          1      MOL    F4            603     0.69767290      18.998403     ; qtot 12.455
   604     f          1      MOL    F5            604    -0.22042657      18.998403     ; qtot 12.234
   605     f          1      MOL    F6            605    -0.20630183      18.998403     ; qtot 12.028
   606     o          1      MOL    O2            606    -0.21466058      15.999405     ; qtot 11.813
   607     c          1      MOL    C25           607    -0.69756052      12.010736     ; qtot 11.116
   608     n          1      MOL    N4            608     0.88891905      14.006703     ; qtot 12.005
   609     c          1      MOL    C26           609    -0.78619212      12.010736     ; qtot 11.218
   610     o          1      MOL    O3            610     0.90807527      15.999405     ; qtot 12.126
   611     ca         1      MOL    C27           611    -0.74816420      12.010736     ; qtot 11.378
   612     ca         1      MOL    C28           612     0.09326384      12.010736     ; qtot 11.472
   613     ca         1      MOL    C29           613    -0.15737622      12.010736     ; qtot 11.314
   614     ca         1      MOL    C30           614    -0.17934704      12.010736     ; qtot 11.135
   615     ca         1      MOL    C31           615    -0.15614409      12.010736     ; qtot 10.979
   616     ca         1      MOL    C32           616    -0.14656743      12.010736     ; qtot 10.832
   617     c2         1      MOL    C33           617     0.09041700      12.010736     ; qtot 10.923
   618     na         1      MOL    N5            618     0.16344373      14.006703     ; qtot 11.086
   619     na         1      MOL    N6            619     0.04827003      14.006703     ; qtot 11.134
   620     c2         1      MOL    C34           620     0.31769869      12.010736     ; qtot 11.452
   621     c2         1      MOL    C35           621    -0.19960142      12.010736     ; qtot 11.252
   622     c3         1      MOL    C36           622    -0.07463554      12.010736     ; qtot 11.178
   623     h1         1      MOL    H1            623    -0.62463812       1.007941     ; qtot 10.553
   624     h1         1      MOL    H2            624     0.26548602       1.007941     ; qtot 10.819
   625     h1         1      MOL    H3            625     0.26548602       1.007941     ; qtot 11.084
   626     ca         1      MOL    C37           626     0.26548602      12.010736     ; qtot 11.350
   627     ca         1      MOL    C38           627     0.24922520      12.010736     ; qtot 11.599
   628     ca         1      MOL    C39           628    -0.20187393      12.010736     ; qtot 11.397
   629     ca         1      MOL    C40           629    -0.18318068      12.010736     ; qtot 11.214
   630     ca         1      MOL    C41           630    -0.14751308      12.010736     ; qtot 11.066
   631     ca         1      MOL    C42           631    -0.18527476      12.010736     ; qtot 10.881
   632     c3         1      MOL    C43           632    -0.20374249      12.010736     ; qtot 10.677
   633     f          1      MOL    F7            633     0.69893174      18.998403     ; qtot 11.376
   634     f          1      MOL    F8            634    -0.22692695      18.998403     ; qtot 11.149
   635     f          1      MOL    F9            635    -0.20559847      18.998403     ; qtot 10.944
   636     c2         1      MOL    C44           636    -0.22899252      12.010736     ; qtot 10.715
   637     c2         1      MOL    C45           637    -0.23924053      12.010736     ; qtot 10.475
   638     c3         1      MOL    C46           638    -0.03572039      12.010736     ; qtot 10.440
   639     f          1      MOL    F10           639     0.70750889      18.998403     ; qtot 11.147
   640     f          1      MOL    F11           640    -0.23202665      18.998403     ; qtot 10.915
   641     h4         1      MOL    H4            641    -0.20560469       1.007941     ; qtot 10.709
   642     ha         1      MOL    H5            642     0.32341270       1.007941     ; qtot 11.033
   643     ha         1      MOL    H6            643     0.21935405       1.007941     ; qtot 11.252
   644     ha         1      MOL    H7            644     0.27883421       1.007941     ; qtot 11.531
   645     ha         1      MOL    H8            645     0.20173056       1.007941     ; qtot 11.733
   646     ha         1      MOL    H9            646     0.27100244       1.007941     ; qtot 12.004
   647     ha         1      MOL    H10           647     0.18693139       1.007941     ; qtot 12.191
   648     ha         1      MOL    H11           648     0.20366112       1.007941     ; qtot 12.394
   649     ha         1      MOL    H12           649     0.22038259       1.007941     ; qtot 12.615
   650     ha         1      MOL    H13           650     0.19973813       1.007941     ; qtot 12.815
   651     ha         1      MOL    H14           651     0.19099797       1.007941     ; qtot 13.006
   652     o          1      MOL    O4            652     0.22121783      15.999405     ; qtot 13.227
   653     ha         1      MOL    H15           653    -0.73915253       1.007941     ; qtot 12.488
   654     ha         1      MOL    H16           654     0.20252401       1.007941     ; qtot 12.690
   655     ha         1      MOL    H17           655     0.21932308       1.007941     ; qtot 12.909
   656     ha         1      MOL    H18           656     0.22608478       1.007941     ; qtot 13.136
   657     ha         1      MOL    H19           657     0.21367359       1.007941     ; qtot 13.349
   658     ha         1      MOL    H20           658     0.19989100       1.007941     ; qtot 13.549
   659     ha         1      MOL    H21           659     0.19836987       1.007941     ; qtot 13.747
   660     h4         1      MOL    H22           660     0.21153706       1.007941     ; qtot 13.959
   661     ha         1      MOL    H23           661     0.21349288       1.007941     ; qtot 14.173
   662     f          1      MOL    F12           662     0.30829781      18.998403     ; qtot 14.481
   663     c3         1      MOL    C47           663     0.20429578      12.010736     ; qtot 14.685
   664     h1         1      MOL    H24           664    -0.23083548       1.007941     ; qtot 14.454
   665     h1         1      MOL    H25           665    -0.40929592       1.007941     ; qtot 14.045
   666     h1         1      MOL    H26           666     0.22048164       1.007941     ; qtot 14.265
   667     na         1      MOL    N1            667     0.22048164      14.006703     ; qtot 14.486
   668     na         1      MOL    N2            668     0.19290043      14.006703     ; qtot 14.679
   669     c2         1      MOL    C1            669     0.14879494      12.010736     ; qtot 14.828
   670     ca         1      MOL    C2            670     0.18109658      12.010736     ; qtot 15.009
   671     ca         1      MOL    C3            671     0.09988006      12.010736     ; qtot 15.109
   672     ca         1      MOL    C4            672    -0.12472416      12.010736     ; qtot 14.984
   673     ca         1      MOL    C5            673    -0.37670997      12.010736     ; qtot 14.607
   674     ca         1      MOL    C6            674     0.42410536      12.010736     ; qtot 15.031
   675     ca         1      MOL    C7            675    -0.35912031      12.010736     ; qtot 14.672
   676     n          1      MOL    N3            676    -0.12200639      14.006703     ; qtot 14.550
   677     c          1      MOL    C8            677    -0.40653626      12.010736     ; qtot 14.144
   678     ca         1      MOL    C9            678     0.81371513      12.010736     ; qtot 14.957
   679     ca         1      MOL    C10           679    -0.14818601      12.010736     ; qtot 14.809
   680     c          1      MOL    C11           680    -0.05821468      12.010736     ; qtot 14.751
   681     o          1      MOL    O1            681     0.76683414      15.999405     ; qtot 15.518
   682     ca         1      MOL    C12           682    -0.66724479      12.010736     ; qtot 14.851
   683     ca         1      MOL    C13           683    -0.12717142      12.010736     ; qtot 14.723
   684     ca         1      MOL    C14           684     0.23202956      12.010736     ; qtot 14.955
   685     ca         1      MOL    C15           685    -0.12600997      12.010736     ; qtot 14.829
   686     ca         1      MOL    C16           686    -0.19370283      12.010736     ; qtot 14.636
   687     ca         1      MOL    C17           687     0.25288698      12.010736     ; qtot 14.889
   688     ca         1      MOL    C18           688    -0.17901797      12.010736     ; qtot 14.710
   689     ca         1      MOL    C19           689    -0.10354150      12.010736     ; qtot 14.606
   690     ca         1      MOL    C20           690    -0.11956495      12.010736     ; qtot 14.486
   691     ca         1      MOL    C21           691    -0.08617917      12.010736     ; qtot 14.400
   692     c3         1      MOL    C22           692    -0.21430383      12.010736     ; qtot 14.186
   693     c3         1      MOL    C23           693    -0.52525105      12.010736     ; qtot 13.661
   694     f          1      MOL    F1            694     0.69688454      18.998403     ; qtot 14.358
   695     f          1      MOL    F2            695    -0.21727244      18.998403     ; qtot 14.140
   696     f          1      MOL    F3            696    -0.20444625      18.998403     ; qtot 13.936
   697     c3         1      MOL    C24           697    -0.21630880      12.010736     ; qtot 13.720
   698     f          1      MOL    F4            698     0.69767290      18.998403     ; qtot 14.417
   699     f          1      MOL    F5            699    -0.22042657      18.998403     ; qtot 14.197
   700     f          1      MOL    F6            700    -0.20630183      18.998403     ; qtot 13.990
   701     o          1      MOL    O2            701    -0.21466058      15.999405     ; qtot 13.776
   702     c          1      MOL    C25           702    -0.69756052      12.010736     ; qtot 13.078
   703     n          1      MOL    N4            703     0.88891905      14.006703     ; qtot 13.967
   704     c          1      MOL    C26           704    -0.78619212      12.010736     ; qtot 13.181
   705     o          1      MOL    O3            705     0.90807527      15.999405     ; qtot 14.089
   706     ca         1      MOL    C27           706    -0.74816420      12.010736     ; qtot 13.341
   707     ca         1      MOL    C28           707     0.09326384      12.010736     ; qtot 13.434
   708     ca         1      MOL    C29           708    -0.15737622      12.010736     ; qtot 13.277
   709     ca         1      MOL    C30           709    -0.17934704      12.010736     ; qtot 13.097
   710     ca         1      MOL    C31           710    -0.15614409      12.010736     ; qtot 12.941
   711     ca         1      MOL    C32           711    -0.14656743      12.010736     ; qtot 12.795
   712     c2         1      MOL    C33           712     0.09041700      12.010736     ; qtot 12.885
   713     na         1      MOL    N5            713     0.16344373      14.006703     ; qtot 13.049
   714     na         1      MOL    N6            714     0.04827003      14.006703     ; qtot 13.097
   715     c2         1      MOL    C34           715     0.31769869      12.010736     ; qtot 13.415
   716     c2         1      MOL    C35           716    -0.19960142      12.010736     ; qtot 13.215
   717     c3         1      MOL    C36           717    -0.07463554      12.010736     ; qtot 13.140
   718     h1         1      MOL    H1            718    -0.62463812       1.007941     ; qtot 12.516
   719     h1         1      MOL    H2            719     0.26548602       1.007941     ; qtot 12.781
   720     h1         1      MOL    H3            720     0.26548602       1.007941     ; qtot 13.047
   721     ca         1      MOL    C37           721     0.26548602      12.010736     ; qtot 13.312
   722     ca         1      MOL    C38           722     0.24922520      12.010736     ; qtot 13.561
   723     ca         1      MOL    C39           723    -0.20187393      12.010736     ; qtot 13.359
   724     ca         1      MOL    C40           724    -0.18318068      12.010736     ; qtot 13.176
   725     ca         1      MOL    C41           725    -0.14751308      12.010736     ; qtot 13.029
   726     ca         1      MOL    C42           726    -0.18527476      12.010736     ; qtot 12.844
   727     c3         1      MOL    C43           727    -0.20374249      12.010736     ; qtot 12.640
   728     f          1      MOL    F7            728     0.69893174      18.998403     ; qtot 13.339
   729     f          1      MOL    F8            729    -0.22692695      18.998403     ; qtot 13.112
   730     f          1      MOL    F9            730    -0.20559847      18.998403     ; qtot 12.906
   731     c2         1      MOL    C44           731    -0.22899252      12.010736     ; qtot 12.677
   732     c2         1      MOL    C45           732    -0.23924053      12.010736     ; qtot 12.438
   733     c3         1      MOL    C46           733    -0.03572039      12.010736     ; qtot 12.402
   734     f          1      MOL    F10           734     0.70750889      18.998403     ; qtot 13.110
   735     f          1      MOL    F11           735    -0.23202665      18.998403     ; qtot 12.878
   736     h4         1      MOL    H4            736    -0.20560469       1.007941     ; qtot 12.672
   737     ha         1      MOL    H5            737     0.32341270       1.007941     ; qtot 12.996
   738     ha         1      MOL    H6            738     0.21935405       1.007941     ; qtot 13.215
   739     ha         1      MOL    H7            739     0.27883421       1.007941     ; qtot 13.494
   740     ha         1      MOL    H8            740     0.20173056       1.007941     ; qtot 13.695
   741     ha         1      MOL    H9            741     0.27100244       1.007941     ; qtot 13.966
   742     ha         1      MOL    H10           742     0.18693139       1.007941     ; qtot 14.153
   743     ha         1      MOL    H11           743     0.20366112       1.007941     ; qtot 14.357
   744     ha         1      MOL    H12           744     0.22038259       1.007941     ; qtot 14.577
   745     ha         1      MOL    H13           745     0.19973813       1.007941     ; qtot 14.777
   746     ha         1      MOL    H14           746     0.19099797       1.007941     ; qtot 14.968
   747     o          1      MOL    O4            747     0.22121783      15.999405     ; qtot 15.189
   748     ha         1      MOL    H15           748    -0.73915253       1.007941     ; qtot 14.450
   749     ha         1      MOL    H16           749     0.20252401       1.007941     ; qtot 14.653
   750     ha         1      MOL    H17           750     0.21932308       1.007941     ; qtot 14.872
   751     ha         1      MOL    H18           751     0.22608478       1.007941     ; qtot 15.098
   752     ha         1      MOL    H19           752     0.21367359       1.007941     ; qtot 15.312
   753     ha         1      MOL    H20           753     0.19989100       1.007941     ; qtot 15.512
   754     ha         1      MOL    H21           754     0.19836987       1.007941     ; qtot 15.710
   755     h4         1      MOL    H22           755     0.21153706       1.007941     ; qtot 15.922
   756     ha         1      MOL    H23           756     0.21349288       1.007941     ; qtot 16.135
   757     f          1      MOL    F12           757     0.30829781      18.998403     ; qtot 16.443
   758     c3         1      MOL    C47           758     0.20429578      12.010736     ; qtot 16.648
   759     h1         1      MOL    H24           759    -0.23083548       1.007941     ; qtot 16.417
   760     h1         1      MOL    H25           760    -0.40929592       1.007941     ; qtot 16.008
   761     h1         1      MOL    H26           761     0.22048164       1.007941     ; qtot 16.228
   762     na         1      MOL    N1            762     0.22048164      14.006703     ; qtot 16.449
   763     na         1      MOL    N2            763     0.19290043      14.006703     ; qtot 16.641
   764     c2         1      MOL    C1            764     0.14879494      12.010736     ; qtot 16.790
   765     ca         1      MOL    C2            765     0.18109658      12.010736     ; qtot 16.971
   766     ca         1      MOL    C3            766     0.09988006      12.010736     ; qtot 17.071
   767     ca         1      MOL    C4            767    -0.12472416      12.010736     ; qtot 16.946
   768     ca         1      MOL    C5            768    -0.37670997      12.010736     ; qtot 16.570
   769     ca         1      MOL    C6            769     0.42410536      12.010736     ; qtot 16.994
   770     ca         1      MOL    C7            770    -0.35912031      12.010736     ; qtot 16.635
   771     n          1      MOL    N3            771    -0.12200639      14.006703     ; qtot 16.513
   772     c          1      MOL    C8            772    -0.40653626      12.010736     ; qtot 16.106
   773     ca         1      MOL    C9            773     0.81371513      12.010736     ; qtot 16.920
   774     ca         1      MOL    C10           774    -0.14818601      12.010736     ; qtot 16.772
   775     c          1      MOL    C11           775    -0.05821468      12.010736     ; qtot 16.714
   776     o          1      MOL    O1            776     0.76683414      15.999405     ; qtot 17.480
   777     ca         1      MOL    C12           777    -0.66724479      12.010736     ; qtot 16.813
   778     ca         1      MOL    C13           778    -0.12717142      12.010736     ; qtot 16.686
   779     ca         1      MOL    C14           779     0.23202956      12.010736     ; qtot 16.918
   780     ca         1      MOL    C15           780    -0.12600997      12.010736     ; qtot 16.792
   781     ca         1      MOL    C16           781    -0.19370283      12.010736     ; qtot 16.598
   782     ca         1      MOL    C17           782     0.25288698      12.010736     ; qtot 16.851
   783     ca         1      MOL    C18           783    -0.17901797      12.010736     ; qtot 16.672
   784     ca         1      MOL    C19           784    -0.10354150      12.010736     ; qtot 16.569
   785     ca         1      MOL    C20           785    -0.11956495      12.010736     ; qtot 16.449
   786     ca         1      MOL    C21           786    -0.08617917      12.010736     ; qtot 16.363
   787     c3         1      MOL    C22           787    -0.21430383      12.010736     ; qtot 16.149
   788     c3         1      MOL    C23           788    -0.52525105      12.010736     ; qtot 15.623
   789     f          1      MOL    F1            789     0.69688454      18.998403     ; qtot 16.320
   790     f          1      MOL    F2            790    -0.21727244      18.998403     ; qtot 16.103
   791     f          1      MOL    F3            791    -0.20444625      18.998403     ; qtot 15.898
   792     c3         1      MOL    C24           792    -0.21630880      12.010736     ; qtot 15.682
   793     f          1      MOL    F4            793     0.69767290      18.998403     ; qtot 16.380
   794     f          1      MOL    F5            794    -0.22042657      18.998403     ; qtot 16.159
   795     f          1      MOL    F6            795    -0.20630183      18.998403     ; qtot 15.953
   796     o          1      MOL    O2            796    -0.21466058      15.999405     ; qtot 15.738
   797     c          1      MOL    C25           797    -0.69756052      12.010736     ; qtot 15.041
   798     n          1      MOL    N4            798     0.88891905      14.006703     ; qtot 15.930
   799     c          1      MOL    C26           799    -0.78619212      12.010736     ; qtot 15.144
   800     o          1      MOL    O3            800     0.90807527      15.999405     ; qtot 16.052
   801     ca         1      MOL    C27           801    -0.74816420      12.010736     ; qtot 15.304
   802     ca         1      MOL    C28           802     0.09326384      12.010736     ; qtot 15.397
   803     ca         1      MOL    C29           803    -0.15737622      12.010736     ; qtot 15.239
   804     ca         1      MOL    C30           804    -0.17934704      12.010736     ; qtot 15.060
   805     ca         1      MOL    C31           805    -0.15614409      12.010736     ; qtot 14.904
   806     ca         1      MOL    C32           806    -0.14656743      12.010736     ; qtot 14.757
   807     c2         1      MOL    C33           807     0.09041700      12.010736     ; qtot 14.848
   808     na         1      MOL    N5            808     0.16344373      14.006703     ; qtot 15.011
   809     na         1      MOL    N6            809     0.04827003      14.006703     ; qtot 15.059
   810     c2         1      MOL    C34           810     0.31769869      12.010736     ; qtot 15.377
   811     c2         1      MOL    C35           811    -0.19960142      12.010736     ; qtot 15.178
   812     c3         1      MOL    C36           812    -0.07463554      12.010736     ; qtot 15.103
   813     h1         1      MOL    H1            813    -0.62463812       1.007941     ; qtot 14.478
   814     h1         1      MOL    H2            814     0.26548602       1.007941     ; qtot 14.744
   815     h1         1      MOL    H3            815     0.26548602       1.007941     ; qtot 15.009
   816     ca         1      MOL    C37           816     0.26548602      12.010736     ; qtot 15.275
   817     ca         1      MOL    C38           817     0.24922520      12.010736     ; qtot 15.524
   818     ca         1      MOL    C39           818    -0.20187393      12.010736     ; qtot 15.322
   819     ca         1      MOL    C40           819    -0.18318068      12.010736     ; qtot 15.139
   820     ca         1      MOL    C41           820    -0.14751308      12.010736     ; qtot 14.991
   821     ca         1      MOL    C42           821    -0.18527476      12.010736     ; qtot 14.806
   822     c3         1      MOL    C43           822    -0.20374249      12.010736     ; qtot 14.602
   823     f          1      MOL    F7            823     0.69893174      18.998403     ; qtot 15.301
   824     f          1      MOL    F8            824    -0.22692695      18.998403     ; qtot 15.074
   825     f          1      MOL    F9            825    -0.20559847      18.998403     ; qtot 14.869
   826     c2         1      MOL    C44           826    -0.22899252      12.010736     ; qtot 14.640
   827     c2         1      MOL    C45           827    -0.23924053      12.010736     ; qtot 14.401
   828     c3         1      MOL    C46           828    -0.03572039      12.010736     ; qtot 14.365
   829     f          1      MOL    F10           829     0.70750889      18.998403     ; qtot 15.072
   830     f          1      MOL    F11           830    -0.23202665      18.998403     ; qtot 14.840
   831     h4         1      MOL    H4            831    -0.20560469       1.007941     ; qtot 14.635
   832     ha         1      MOL    H5            832     0.32341270       1.007941     ; qtot 14.958
   833     ha         1      MOL    H6            833     0.21935405       1.007941     ; qtot 15.178
   834     ha         1      MOL    H7            834     0.27883421       1.007941     ; qtot 15.456
   835     ha         1      MOL    H8            835     0.20173056       1.007941     ; qtot 15.658
   836     ha         1      MOL    H9            836     0.27100244       1.007941     ; qtot 15.929
   837     ha         1      MOL    H10           837     0.18693139       1.007941     ; qtot 16.116
   838     ha         1      MOL    H11           838     0.20366112       1.007941     ; qtot 16.320
   839     ha         1      MOL    H12           839     0.22038259       1.007941     ; qtot 16.540
   840     ha         1      MOL    H13           840     0.19973813       1.007941     ; qtot 16.740
   841     ha         1      MOL    H14           841     0.19099797       1.007941     ; qtot 16.931
   842     o          1      MOL    O4            842     0.22121783      15.999405     ; qtot 17.152
   843     ha         1      MOL    H15           843    -0.73915253       1.007941     ; qtot 16.413
   844     ha         1      MOL    H16           844     0.20252401       1.007941     ; qtot 16.615
   845     ha         1      MOL    H17           845     0.21932308       1.007941     ; qtot 16.835
   846     ha         1      MOL    H18           846     0.22608478       1.007941     ; qtot 17.061
   847     ha         1      MOL    H19           847     0.21367359       1.007941     ; qtot 17.274
   848     ha         1      MOL    H20           848     0.19989100       1.007941     ; qtot 17.474
   849     ha         1      MOL    H21           849     0.19836987       1.007941     ; qtot 17.673
   850     h4         1      MOL    H22           850     0.21153706       1.007941     ; qtot 17.884
   851     ha         1      MOL    H23           851     0.21349288       1.007941     ; qtot 18.098
   852     f          1      MOL    F12           852     0.30829781      18.998403     ; qtot 18.406
   853     c3         1      MOL    C47           853     0.20429578      12.010736     ; qtot 18.610
   854     h1         1      MOL    H24           854    -0.23083548       1.007941     ; qtot 18.380
   855     h1         1      MOL    H25           855    -0.40929592       1.007941     ; qtot 17.970
   856     h1         1      MOL    H26           856     0.22048164       1.007941     ; qtot 18.191
   857     na         1      MOL    N1            857     0.22048164      14.006703     ; qtot 18.411
   858     na         1      MOL    N2            858     0.19290043      14.006703     ; qtot 18.604
   859     c2         1      MOL    C1            859     0.14879494      12.010736     ; qtot 18.753
   860     ca         1      MOL    C2            860     0.18109658      12.010736     ; qtot 18.934
   861     ca         1      MOL    C3            861     0.09988006      12.010736     ; qtot 19.034
   862     ca         1      MOL    C4            862    -0.12472416      12.010736     ; qtot 18.909
   863     ca         1      MOL    C5            863    -0.37670997      12.010736     ; qtot 18.532
   864     ca         1      MOL    C6            864     0.42410536      12.010736     ; qtot 18.957
   865     ca         1      MOL    C7            865    -0.35912031      12.010736     ; qtot 18.597
   866     n          1      MOL    N3            866    -0.12200639      14.006703     ; qtot 18.475
   867     c          1      MOL    C8            867    -0.40653626      12.010736     ; qtot 18.069
   868     ca         1      MOL    C9            868     0.81371513      12.010736     ; qtot 18.883
   869     ca         1      MOL    C10           869    -0.14818601      12.010736     ; qtot 18.734
   870     c          1      MOL    C11           870    -0.05821468      12.010736     ; qtot 18.676
   871     o          1      MOL    O1            871     0.76683414      15.999405     ; qtot 19.443
   872     ca         1      MOL    C12           872    -0.66724479      12.010736     ; qtot 18.776
   873     ca         1      MOL    C13           873    -0.12717142      12.010736     ; qtot 18.649
   874     ca         1      MOL    C14           874     0.23202956      12.010736     ; qtot 18.881
   875     ca         1      MOL    C15           875    -0.12600997      12.010736     ; qtot 18.755
   876     ca         1      MOL    C16           876    -0.19370283      12.010736     ; qtot 18.561
   877     ca         1      MOL    C17           877     0.25288698      12.010736     ; qtot 18.814
   878     ca         1      MOL    C18           878    -0.17901797      12.010736     ; qtot 18.635
   879     ca         1      MOL    C19           879    -0.10354150      12.010736     ; qtot 18.531
   880     ca         1      MOL    C20           880    -0.11956495      12.010736     ; qtot 18.412
   881     ca         1      MOL    C21           881    -0.08617917      12.010736     ; qtot 18.325
   882     c3         1      MOL    C22           882    -0.21430383      12.010736     ; qtot 18.111
   883     c3         1      MOL    C23           883    -0.52525105      12.010736     ; qtot 17.586
   884     f          1      MOL    F1            884     0.69688454      18.998403     ; qtot 18.283
   885     f          1      MOL    F2            885    -0.21727244      18.998403     ; qtot 18.066
   886     f          1      MOL    F3            886    -0.20444625      18.998403     ; qtot 17.861
   887     c3         1      MOL    C24           887    -0.21630880      12.010736     ; qtot 17.645
   888     f          1      MOL    F4            888     0.69767290      18.998403     ; qtot 18.342
   889     f          1      MOL    F5            889    -0.22042657      18.998403     ; qtot 18.122
   890     f          1      MOL    F6            890    -0.20630183      18.998403     ; qtot 17.916
   891     o          1      MOL    O2            891    -0.21466058      15.999405     ; qtot 17.701
   892     c          1      MOL    C25           892    -0.69756052      12.010736     ; qtot 17.004
   893     n          1      MOL    N4            893     0.88891905      14.006703     ; qtot 17.892
   894     c          1      MOL    C26           894    -0.78619212      12.010736     ; qtot 17.106
   895     o          1      MOL    O3            895     0.90807527      15.999405     ; qtot 18.014
   896     ca         1      MOL    C27           896    -0.74816420      12.010736     ; qtot 17.266
   897     ca         1      MOL    C28           897     0.09326384      12.010736     ; qtot 17.359
   898     ca         1      MOL    C29           898    -0.15737622      12.010736     ; qtot 17.202
   899     ca         1      MOL    C30           899    -0.17934704      12.010736     ; qtot 17.023
   900     ca         1      MOL    C31           900    -0.15614409      12.010736     ; qtot 16.867
   901     ca         1      MOL    C32           901    -0.14656743      12.010736     ; qtot 16.720
   902     c2         1      MOL    C33           902     0.09041700      12.010736     ; qtot 16.810
   903     na         1      MOL    N5            903     0.16344373      14.006703     ; qtot 16.974
   904     na         1      MOL    N6            904     0.04827003      14.006703     ; qtot 17.022
   905     c2         1      MOL    C34           905     0.31769869      12.010736     ; qtot 17.340
   906     c2         1      MOL    C35           906    -0.19960142      12.010736     ; qtot 17.140
   907     c3         1      MOL    C36           907    -0.07463554      12.010736     ; qtot 17.066
   908     h1         1      MOL    H1            908    -0.62463812       1.007941     ; qtot 16.441
   909     h1         1      MOL    H2            909     0.26548602       1.007941     ; qtot 16.706
   910     h1         1      MOL    H3            910     0.26548602       1.007941     ; qtot 16.972
   911     ca         1      MOL    C37           911     0.26548602      12.010736     ; qtot 17.237
   912     ca         1      MOL    C38           912     0.24922520      12.010736     ; qtot 17.487
   913     ca         1      MOL    C39           913    -0.20187393      12.010736     ; qtot 17.285
   914     ca         1      MOL    C40           914    -0.18318068      12.010736     ; qtot 17.102
   915     ca         1      MOL    C41           915    -0.14751308      12.010736     ; qtot 16.954
   916     ca         1      MOL    C42           916    -0.18527476      12.010736     ; qtot 16.769
   917     c3         1      MOL    C43           917    -0.20374249      12.010736     ; qtot 16.565
   918     f          1      MOL    F7            918     0.69893174      18.998403     ; qtot 17.264
   919     f          1      MOL    F8            919    -0.22692695      18.998403     ; qtot 17.037
   920     f          1      MOL    F9            920    -0.20559847      18.998403     ; qtot 16.831
   921     c2         1      MOL    C44           921    -0.22899252      12.010736     ; qtot 16.602
   922     c2         1      MOL    C45           922    -0.23924053      12.010736     ; qtot 16.363
   923     c3         1      MOL    C46           923    -0.03572039      12.010736     ; qtot 16.327
   924     f          1      MOL    F10           924     0.70750889      18.998403     ; qtot 17.035
   925     f          1      MOL    F11           925    -0.23202665      18.998403     ; qtot 16.803
   926     h4         1      MOL    H4            926    -0.20560469       1.007941     ; qtot 16.597
   927     ha         1      MOL    H5            927     0.32341270       1.007941     ; qtot 16.921
   928     ha         1      MOL    H6            928     0.21935405       1.007941     ; qtot 17.140
   929     ha         1      MOL    H7            929     0.27883421       1.007941     ; qtot 17.419
   930     ha         1      MOL    H8            930     0.20173056       1.007941     ; qtot 17.621
   931     ha         1      MOL    H9            931     0.27100244       1.007941     ; qtot 17.892
   932     ha         1      MOL    H10           932     0.18693139       1.007941     ; qtot 18.079
   933     ha         1      MOL    H11           933     0.20366112       1.007941     ; qtot 18.282
   934     ha         1      MOL    H12           934     0.22038259       1.007941     ; qtot 18.503
   935     ha         1      MOL    H13           935     0.19973813       1.007941     ; qtot 18.702
   936     ha         1      MOL    H14           936     0.19099797       1.007941     ; qtot 18.893
   937     o          1      MOL    O4            937     0.22121783      15.999405     ; qtot 19.115
   938     ha         1      MOL    H15           938    -0.73915253       1.007941     ; qtot 18.375
   939     ha         1      MOL    H16           939     0.20252401       1.007941     ; qtot 18.578
   940     ha         1      MOL    H17           940     0.21932308       1.007941     ; qtot 18.797
   941     ha         1      MOL    H18           941     0.22608478       1.007941     ; qtot 19.023
   942     ha         1      MOL    H19           942     0.21367359       1.007941     ; qtot 19.237
   943     ha         1      MOL    H20           943     0.19989100       1.007941     ; qtot 19.437
   944     ha         1      MOL    H21           944     0.19836987       1.007941     ; qtot 19.635
   945     h4         1      MOL    H22           945     0.21153706       1.007941     ; qtot 19.847
   946     ha         1      MOL    H23           946     0.21349288       1.007941     ; qtot 20.060
   947     f          1      MOL    F12           947     0.30829781      18.998403     ; qtot 20.369
   948     c3         1      MOL    C47           948     0.20429578      12.010736     ; qtot 20.573
   949     h1         1      MOL    H24           949    -0.23083548       1.007941     ; qtot 20.342
   950     h1         1      MOL    H25           950    -0.40929592       1.007941     ; qtot 19.933
   951     h1         1      MOL    H26           951     0.22048164       1.007941     ; qtot 20.153
   952     na         1      MOL    N1            952     0.22048164      14.006703     ; qtot 20.374
   953     na         1      MOL    N2            953     0.19290043      14.006703     ; qtot 20.567
   954     c2         1      MOL    C1            954     0.14879494      12.010736     ; qtot 20.715
   955     ca         1      MOL    C2            955     0.18109658      12.010736     ; qtot 20.897
   956     ca         1      MOL    C3            956     0.09988006      12.010736     ; qtot 20.996
   957     ca         1      MOL    C4            957    -0.12472416      12.010736     ; qtot 20.872
   958     ca         1      MOL    C5            958    -0.37670997      12.010736     ; qtot 20.495
   959     ca         1      MOL    C6            959     0.42410536      12.010736     ; qtot 20.919
   960     ca         1      MOL    C7            960    -0.35912031      12.010736     ; qtot 20.560
   961     n          1      MOL    N3            961    -0.12200639      14.006703     ; qtot 20.438
   962     c          1      MOL    C8            962    -0.40653626      12.010736     ; qtot 20.031
   963     ca         1      MOL    C9            963     0.81371513      12.010736     ; qtot 20.845
   964     ca         1      MOL    C10           964    -0.14818601      12.010736     ; qtot 20.697
   965     c          1      MOL    C11           965    -0.05821468      12.010736     ; qtot 20.639
   966     o          1      MOL    O1            966     0.76683414      15.999405     ; qtot 21.406
   967     ca         1      MOL    C12           967    -0.66724479      12.010736     ; qtot 20.738
   968     ca         1      MOL    C13           968    -0.12717142      12.010736     ; qtot 20.611
   969     ca         1      MOL    C14           969     0.23202956      12.010736     ; qtot 20.843
   970     ca         1      MOL    C15           970    -0.12600997      12.010736     ; qtot 20.717
   971     ca         1      MOL    C16           971    -0.19370283      12.010736     ; qtot 20.524
   972     ca         1      MOL    C17           972     0.25288698      12.010736     ; qtot 20.776
   973     ca         1      MOL    C18           973    -0.17901797      12.010736     ; qtot 20.597
   974     ca         1      MOL    C19           974    -0.10354150      12.010736     ; qtot 20.494
   975     ca         1      MOL    C20           975    -0.11956495      12.010736     ; qtot 20.374
   976     ca         1      MOL    C21           976    -0.08617917      12.010736     ; qtot 20.288
   977     c3         1      MOL    C22           977    -0.21430383      12.010736     ; qtot 20.074
   978     c3         1      MOL    C23           978    -0.52525105      12.010736     ; qtot 19.549
   979     f          1      MOL    F1            979     0.69688454      18.998403     ; qtot 20.245
   980     f          1      MOL    F2            980    -0.21727244      18.998403     ; qtot 20.028
   981     f          1      MOL    F3            981    -0.20444625      18.998403     ; qtot 19.824
   982     c3         1      MOL    C24           982    -0.21630880      12.010736     ; qtot 19.607
   983     f          1      MOL    F4            983     0.69767290      18.998403     ; qtot 20.305
   984     f          1      MOL    F5            984    -0.22042657      18.998403     ; qtot 20.085
   985     f          1      MOL    F6            985    -0.20630183      18.998403     ; qtot 19.878
   986     o          1      MOL    O2            986    -0.21466058      15.999405     ; qtot 19.664
   987     c          1      MOL    C25           987    -0.69756052      12.010736     ; qtot 18.966
   988     n          1      MOL    N4            988     0.88891905      14.006703     ; qtot 19.855
   989     c          1      MOL    C26           989    -0.78619212      12.010736     ; qtot 19.069
   990     o          1      MOL    O3            990     0.90807527      15.999405     ; qtot 19.977
   991     ca         1      MOL    C27           991    -0.74816420      12.010736     ; qtot 19.229
   992     ca         1      MOL    C28           992     0.09326384      12.010736     ; qtot 19.322
   993     ca         1      MOL    C29           993    -0.15737622      12.010736     ; qtot 19.165
   994     ca         1      MOL    C30           994    -0.17934704      12.010736     ; qtot 18.985
   995     ca         1      MOL    C31           995    -0.15614409      12.010736     ; qtot 18.829
   996     ca         1      MOL    C32           996    -0.14656743      12.010736     ; qtot 18.683
   997     c2         1      MOL    C33           997     0.09041700      12.010736     ; qtot 18.773
   998     na         1      MOL    N5            998     0.16344373      14.006703     ; qtot 18.936
   999     na         1      MOL    N6            999     0.04827003      14.006703     ; qtot 18.985
  1000     c2         1      MOL    C34          1000     0.31769869      12.010736     ; qtot 19.302
  1001     c2         1      MOL    C35          1001    -0.19960142      12.010736     ; qtot 19.103
  1002     c3         1      MOL    C36          1002    -0.07463554      12.010736     ; qtot 19.028
  1003     h1         1      MOL    H1           1003    -0.62463812       1.007941     ; qtot 18.404
  1004     h1         1      MOL    H2           1004     0.26548602       1.007941     ; qtot 18.669
  1005     h1         1      MOL    H3           1005     0.26548602       1.007941     ; qtot 18.935
  1006     ca         1      MOL    C37          1006     0.26548602      12.010736     ; qtot 19.200
  1007     ca         1      MOL    C38          1007     0.24922520      12.010736     ; qtot 19.449
  1008     ca         1      MOL    C39          1008    -0.20187393      12.010736     ; qtot 19.247
  1009     ca         1      MOL    C40          1009    -0.18318068      12.010736     ; qtot 19.064
  1010     ca         1      MOL    C41          1010    -0.14751308      12.010736     ; qtot 18.917
  1011     ca         1      MOL    C42          1011    -0.18527476      12.010736     ; qtot 18.731
  1012     c3         1      MOL    C43          1012    -0.20374249      12.010736     ; qtot 18.528
  1013     f          1      MOL    F7           1013     0.69893174      18.998403     ; qtot 19.227
  1014     f          1      MOL    F8           1014    -0.22692695      18.998403     ; qtot 19.000
  1015     f          1      MOL    F9           1015    -0.20559847      18.998403     ; qtot 18.794
  1016     c2         1      MOL    C44          1016    -0.22899252      12.010736     ; qtot 18.565
  1017     c2         1      MOL    C45          1017    -0.23924053      12.010736     ; qtot 18.326
  1018     c3         1      MOL    C46          1018    -0.03572039      12.010736     ; qtot 18.290
  1019     f          1      MOL    F10          1019     0.70750889      18.998403     ; qtot 18.998
  1020     f          1      MOL    F11          1020    -0.23202665      18.998403     ; qtot 18.766
  1021     h4         1      MOL    H4           1021    -0.20560469       1.007941     ; qtot 18.560
  1022     ha         1      MOL    H5           1022     0.32341270       1.007941     ; qtot 18.883
  1023     ha         1      MOL    H6           1023     0.21935405       1.007941     ; qtot 19.103
  1024     ha         1      MOL    H7           1024     0.27883421       1.007941     ; qtot 19.382
  1025     ha         1      MOL    H8           1025     0.20173056       1.007941     ; qtot 19.583
  1026     ha         1      MOL    H9           1026     0.27100244       1.007941     ; qtot 19.854
  1027     ha         1      MOL    H10          1027     0.18693139       1.007941     ; qtot 20.041
  1028     ha         1      MOL    H11          1028     0.20366112       1.007941     ; qtot 20.245
  1029     ha         1      MOL    H12          1029     0.22038259       1.007941     ; qtot 20.465
  1030     ha         1      MOL    H13          1030     0.19973813       1.007941     ; qtot 20.665
  1031     ha         1      MOL    H14          1031     0.19099797       1.007941     ; qtot 20.856
  1032     o          1      MOL    O4           1032     0.22121783      15.999405     ; qtot 21.077
  1033     ha         1      MOL    H15          1033    -0.73915253       1.007941     ; qtot 20.338
  1034     ha         1      MOL    H16          1034     0.20252401       1.007941     ; qtot 20.541
  1035     ha         1      MOL    H17          1035     0.21932308       1.007941     ; qtot 20.760
  1036     ha         1      MOL    H18          1036     0.22608478       1.007941     ; qtot 20.986
  1037     ha         1      MOL    H19          1037     0.21367359       1.007941     ; qtot 21.200
  1038     ha         1      MOL    H20          1038     0.19989100       1.007941     ; qtot 21.400
  1039     ha         1      MOL    H21          1039     0.19836987       1.007941     ; qtot 21.598
  1040     h4         1      MOL    H22          1040     0.21153706       1.007941     ; qtot 21.809
  1041     ha         1      MOL    H23          1041     0.21349288       1.007941     ; qtot 22.023
  1042     f          1      MOL    F12          1042     0.30829781      18.998403     ; qtot 22.331
  1043     c3         1      MOL    C47          1043     0.20429578      12.010736     ; qtot 22.536
  1044     h1         1      MOL    H24          1044    -0.23083548       1.007941     ; qtot 22.305
  1045     h1         1      MOL    H25          1045    -0.40929592       1.007941     ; qtot 21.895
  1046     h1         1      MOL    H26          1046     0.22048164       1.007941     ; qtot 22.116
  1047     na         1      MOL    N1           1047     0.22048164      14.006703     ; qtot 22.336
  1048     na         1      MOL    N2           1048     0.19290043      14.006703     ; qtot 22.529
  1049     c2         1      MOL    C1           1049     0.14879494      12.010736     ; qtot 22.678
  1050     ca         1      MOL    C2           1050     0.18109658      12.010736     ; qtot 22.859
  1051     ca         1      MOL    C3           1051     0.09988006      12.010736     ; qtot 22.959
  1052     ca         1      MOL    C4           1052    -0.12472416      12.010736     ; qtot 22.834
  1053     ca         1      MOL    C5           1053    -0.37670997      12.010736     ; qtot 22.458
  1054     ca         1      MOL    C6           1054     0.42410536      12.010736     ; qtot 22.882
  1055     ca         1      MOL    C7           1055    -0.35912031      12.010736     ; qtot 22.523
  1056     n          1      MOL    N3           1056    -0.12200639      14.006703     ; qtot 22.401
  1057     c          1      MOL    C8           1057    -0.40653626      12.010736     ; qtot 21.994
  1058     ca         1      MOL    C9           1058     0.81371513      12.010736     ; qtot 22.808
  1059     ca         1      MOL    C10          1059    -0.14818601      12.010736     ; qtot 22.660
  1060     c          1      MOL    C11          1060    -0.05821468      12.010736     ; qtot 22.601
  1061     o          1      MOL    O1           1061     0.76683414      15.999405     ; qtot 23.368
  1062     ca         1      MOL    C12          1062    -0.66724479      12.010736     ; qtot 22.701
  1063     ca         1      MOL    C13          1063    -0.12717142      12.010736     ; qtot 22.574
  1064     ca         1      MOL    C14          1064     0.23202956      12.010736     ; qtot 22.806
  1065     ca         1      MOL    C15          1065    -0.12600997      12.010736     ; qtot 22.680
  1066     ca         1      MOL    C16          1066    -0.19370283      12.010736     ; qtot 22.486
  1067     ca         1      MOL    C17          1067     0.25288698      12.010736     ; qtot 22.739
  1068     ca         1      MOL    C18          1068    -0.17901797      12.010736     ; qtot 22.560
  1069     ca         1      MOL    C19          1069    -0.10354150      12.010736     ; qtot 22.456
  1070     ca         1      MOL    C20          1070    -0.11956495      12.010736     ; qtot 22.337
  1071     ca         1      MOL    C21          1071    -0.08617917      12.010736     ; qtot 22.251
  1072     c3         1      MOL    C22          1072    -0.21430383      12.010736     ; qtot 22.036
  1073     c3         1      MOL    C23          1073    -0.52525105      12.010736     ; qtot 21.511
  1074     f          1      MOL    F1           1074     0.69688454      18.998403     ; qtot 22.208
  1075     f          1      MOL    F2           1075    -0.21727244      18.998403     ; qtot 21.991
  1076     f          1      MOL    F3           1076    -0.20444625      18.998403     ; qtot 21.786
  1077     c3         1      MOL    C24          1077    -0.21630880      12.010736     ; qtot 21.570
  1078     f          1      MOL    F4           1078     0.69767290      18.998403     ; qtot 22.268
  1079     f          1      MOL    F5           1079    -0.22042657      18.998403     ; qtot 22.047
  1080     f          1      MOL    F6           1080    -0.20630183      18.998403     ; qtot 21.841
  1081     o          1      MOL    O2           1081    -0.21466058      15.999405     ; qtot 21.626
  1082     c          1      MOL    C25          1082    -0.69756052      12.010736     ; qtot 20.929
  1083     n          1      MOL    N4           1083     0.88891905      14.006703     ; qtot 21.818
  1084     c          1      MOL    C26          1084    -0.78619212      12.010736     ; qtot 21.031
  1085     o          1      MOL    O3           1085     0.90807527      15.999405     ; qtot 21.940
  1086     ca         1      MOL    C27          1086    -0.74816420      12.010736     ; qtot 21.191
  1087     ca         1      MOL    C28          1087     0.09326384      12.010736     ; qtot 21.285
  1088     ca         1      MOL    C29          1088    -0.15737622      12.010736     ; qtot 21.127
  1089     ca         1      MOL    C30          1089    -0.17934704      12.010736     ; qtot 20.948
  1090     ca         1      MOL    C31          1090    -0.15614409      12.010736     ; qtot 20.792
  1091     ca         1      MOL    C32          1091    -0.14656743      12.010736     ; qtot 20.645
  1092     c2         1      MOL    C33          1092     0.09041700      12.010736     ; qtot 20.736
  1093     na         1      MOL    N5           1093     0.16344373      14.006703     ; qtot 20.899
  1094     na         1      MOL    N6           1094     0.04827003      14.006703     ; qtot 20.947
  1095     c2         1      MOL    C34          1095     0.31769869      12.010736     ; qtot 21.265
  1096     c2         1      MOL    C35          1096    -0.19960142      12.010736     ; qtot 21.065
  1097     c3         1      MOL    C36          1097    -0.07463554      12.010736     ; qtot 20.991
  1098     h1         1      MOL    H1           1098    -0.62463812       1.007941     ; qtot 20.366
  1099     h1         1      MOL    H2           1099     0.26548602       1.007941     ; qtot 20.632
  1100     h1         1      MOL    H3           1100     0.26548602       1.007941     ; qtot 20.897
  1101     ca         1      MOL    C37          1101     0.26548602      12.010736     ; qtot 21.163
  1102     ca         1      MOL    C38          1102     0.24922520      12.010736     ; qtot 21.412
  1103     ca         1      MOL    C39          1103    -0.20187393      12.010736     ; qtot 21.210
  1104     ca         1      MOL    C40          1104    -0.18318068      12.010736     ; qtot 21.027
  1105     ca         1      MOL    C41          1105    -0.14751308      12.010736     ; qtot 20.879
  1106     ca         1      MOL    C42          1106    -0.18527476      12.010736     ; qtot 20.694
  1107     c3         1      MOL    C43          1107    -0.20374249      12.010736     ; qtot 20.490
  1108     f          1      MOL    F7           1108     0.69893174      18.998403     ; qtot 21.189
  1109     f          1      MOL    F8           1109    -0.22692695      18.998403     ; qtot 20.962
  1110     f          1      MOL    F9           1110    -0.20559847      18.998403     ; qtot 20.757
  1111     c2         1      MOL    C44          1111    -0.22899252      12.010736     ; qtot 20.528
  1112     c2         1      MOL    C45          1112    -0.23924053      12.010736     ; qtot 20.288
  1113     c3         1      MOL    C46          1113    -0.03572039      12.010736     ; qtot 20.253
  1114     f          1      MOL    F10          1114     0.70750889      18.998403     ; qtot 20.960
  1115     f          1      MOL    F11          1115    -0.23202665      18.998403     ; qtot 20.728
  1116     h4         1      MOL    H4           1116    -0.20560469       1.007941     ; qtot 20.523
  1117     ha         1      MOL    H5           1117     0.32341270       1.007941     ; qtot 20.846
  1118     ha         1      MOL    H6           1118     0.21935405       1.007941     ; qtot 21.065
  1119     ha         1      MOL    H7           1119     0.27883421       1.007941     ; qtot 21.344
  1120     ha         1      MOL    H8           1120     0.20173056       1.007941     ; qtot 21.546
  1121     ha         1      MOL    H9           1121     0.27100244       1.007941     ; qtot 21.817
  1122     ha         1      MOL    H10          1122     0.18693139       1.007941     ; qtot 22.004
  1123     ha         1      MOL    H11          1123     0.20366112       1.007941     ; qtot 22.208
  1124     ha         1      MOL    H12          1124     0.22038259       1.007941     ; qtot 22.428
  1125     ha         1      MOL    H13          1125     0.19973813       1.007941     ; qtot 22.628
  1126     ha         1      MOL    H14          1126     0.19099797       1.007941     ; qtot 22.819
  1127     o          1      MOL    O4           1127     0.22121783      15.999405     ; qtot 23.040
  1128     ha         1      MOL    H15          1128    -0.73915253       1.007941     ; qtot 22.301
  1129     ha         1      MOL    H16          1129     0.20252401       1.007941     ; qtot 22.503
  1130     ha         1      MOL    H17          1130     0.21932308       1.007941     ; qtot 22.723
  1131     ha         1      MOL    H18          1131     0.22608478       1.007941     ; qtot 22.949
  1132     ha         1      MOL    H19          1132     0.21367359       1.007941     ; qtot 23.162
  1133     ha         1      MOL    H20          1133     0.19989100       1.007941     ; qtot 23.362
  1134     ha         1      MOL    H21          1134     0.19836987       1.007941     ; qtot 23.561
  1135     h4         1      MOL    H22          1135     0.21153706       1.007941     ; qtot 23.772
  1136     ha         1      MOL    H23          1136     0.21349288       1.007941     ; qtot 23.986
  1137     f          1      MOL    F12          1137     0.30829781      18.998403     ; qtot 24.294
  1138     c3         1      MOL    C47          1138     0.20429578      12.010736     ; qtot 24.498
  1139     h1         1      MOL    H24          1139    -0.23083548       1.007941     ; qtot 24.267
  1140     h1         1      MOL    H25          1140    -0.40929592       1.007941     ; qtot 23.858
  1141     h1         1      MOL    H26          1141     0.22048164       1.007941     ; qtot 24.079
  1142     na         1      MOL    N1           1142     0.22048164      14.006703     ; qtot 24.299
  1143     na         1      MOL    N2           1143     0.19290043      14.006703     ; qtot 24.492
  1144     c2         1      MOL    C1           1144     0.14879494      12.010736     ; qtot 24.641
  1145     ca         1      MOL    C2           1145     0.18109658      12.010736     ; qtot 24.822
  1146     ca         1      MOL    C3           1146     0.09988006      12.010736     ; qtot 24.922
  1147     ca         1      MOL    C4           1147    -0.12472416      12.010736     ; qtot 24.797
  1148     ca         1      MOL    C5           1148    -0.37670997      12.010736     ; qtot 24.420
  1149     ca         1      MOL    C6           1149     0.42410536      12.010736     ; qtot 24.844
  1150     ca         1      MOL    C7           1150    -0.35912031      12.010736     ; qtot 24.485
  1151     n          1      MOL    N3           1151    -0.12200639      14.006703     ; qtot 24.363
  1152     c          1      MOL    C8           1152    -0.40653626      12.010736     ; qtot 23.957
  1153     ca         1      MOL    C9           1153     0.81371513      12.010736     ; qtot 24.770
  1154     ca         1      MOL    C10          1154    -0.14818601      12.010736     ; qtot 24.622
  1155     c          1      MOL    C11          1155    -0.05821468      12.010736     ; qtot 24.564
  1156     o          1      MOL    O1           1156     0.76683414      15.999405     ; qtot 25.331
  1157     ca         1      MOL    C12          1157    -0.66724479      12.010736     ; qtot 24.664
  1158     ca         1      MOL    C13          1158    -0.12717142      12.010736     ; qtot 24.536
  1159     ca         1      MOL    C14          1159     0.23202956      12.010736     ; qtot 24.768
  1160     ca         1      MOL    C15          1160    -0.12600997      12.010736     ; qtot 24.642
  1161     ca         1      MOL    C16          1161    -0.19370283      12.010736     ; qtot 24.449
  1162     ca         1      MOL    C17          1162     0.25288698      12.010736     ; qtot 24.702
  1163     ca         1      MOL    C18          1163    -0.17901797      12.010736     ; qtot 24.523
  1164     ca         1      MOL    C19          1164    -0.10354150      12.010736     ; qtot 24.419
  1165     ca         1      MOL    C20          1165    -0.11956495      12.010736     ; qtot 24.300
  1166     ca         1      MOL    C21          1166    -0.08617917      12.010736     ; qtot 24.213
  1167     c3         1      MOL    C22          1167    -0.21430383      12.010736     ; qtot 23.999
  1168     c3         1      MOL    C23          1168    -0.52525105      12.010736     ; qtot 23.474
  1169     f          1      MOL    F1           1169     0.69688454      18.998403     ; qtot 24.171
  1170     f          1      MOL    F2           1170    -0.21727244      18.998403     ; qtot 23.953
  1171     f          1      MOL    F3           1171    -0.20444625      18.998403     ; qtot 23.749
  1172     c3         1      MOL    C24          1172    -0.21630880      12.010736     ; qtot 23.533
  1173     f          1      MOL    F4           1173     0.69767290      18.998403     ; qtot 24.230
  1174     f          1      MOL    F5           1174    -0.22042657      18.998403     ; qtot 24.010
  1175     f          1      MOL    F6           1175    -0.20630183      18.998403     ; qtot 23.804
  1176     o          1      MOL    O2           1176    -0.21466058      15.999405     ; qtot 23.589
  1177     c          1      MOL    C25          1177    -0.69756052      12.010736     ; qtot 22.891
  1178     n          1      MOL    N4           1178     0.88891905      14.006703     ; qtot 23.780
  1179     c          1      MOL    C26          1179    -0.78619212      12.010736     ; qtot 22.994
  1180     o          1      MOL    O3           1180     0.90807527      15.999405     ; qtot 23.902
  1181     ca         1      MOL    C27          1181    -0.74816420      12.010736     ; qtot 23.154
  1182     ca         1      MOL    C28          1182     0.09326384      12.010736     ; qtot 23.247
  1183     ca         1      MOL    C29          1183    -0.15737622      12.010736     ; qtot 23.090
  1184     ca         1      MOL    C30          1184    -0.17934704      12.010736     ; qtot 22.911
  1185     ca         1      MOL    C31          1185    -0.15614409      12.010736     ; qtot 22.754
  1186     ca         1      MOL    C32          1186    -0.14656743      12.010736     ; qtot 22.608
  1187     c2         1      MOL    C33          1187     0.09041700      12.010736     ; qtot 22.698
  1188     na         1      MOL    N5           1188     0.16344373      14.006703     ; qtot 22.862
  1189     na         1      MOL    N6           1189     0.04827003      14.006703     ; qtot 22.910
  1190     c2         1      MOL    C34          1190     0.31769869      12.010736     ; qtot 23.228
  1191     c2         1      MOL    C35          1191    -0.19960142      12.010736     ; qtot 23.028
  1192     c3         1      MOL    C36          1192    -0.07463554      12.010736     ; qtot 22.953
  1193     h1         1      MOL    H1           1193    -0.62463812       1.007941     ; qtot 22.329
  1194     h1         1      MOL    H2           1194     0.26548602       1.007941     ; qtot 22.594
  1195     h1         1      MOL    H3           1195     0.26548602       1.007941     ; qtot 22.860
  1196     ca         1      MOL    C37          1196     0.26548602      12.010736     ; qtot 23.125
  1197     ca         1      MOL    C38          1197     0.24922520      12.010736     ; qtot 23.374
  1198     ca         1      MOL    C39          1198    -0.20187393      12.010736     ; qtot 23.173
  1199     ca         1      MOL    C40          1199    -0.18318068      12.010736     ; qtot 22.989
  1200     ca         1      MOL    C41          1200    -0.14751308      12.010736     ; qtot 22.842
  1201     ca         1      MOL    C42          1201    -0.18527476      12.010736     ; qtot 22.657
  1202     c3         1      MOL    C43          1202    -0.20374249      12.010736     ; qtot 22.453
  1203     f          1      MOL    F7           1203     0.69893174      18.998403     ; qtot 23.152
  1204     f          1      MOL    F8           1204    -0.22692695      18.998403     ; qtot 22.925
  1205     f          1      MOL    F9           1205    -0.20559847      18.998403     ; qtot 22.719
  1206     c2         1      MOL    C44          1206    -0.22899252      12.010736     ; qtot 22.490
  1207     c2         1      MOL    C45          1207    -0.23924053      12.010736     ; qtot 22.251
  1208     c3         1      MOL    C46          1208    -0.03572039      12.010736     ; qtot 22.215
  1209     f          1      MOL    F10          1209     0.70750889      18.998403     ; qtot 22.923
  1210     f          1      MOL    F11          1210    -0.23202665      18.998403     ; qtot 22.691
  1211     h4         1      MOL    H4           1211    -0.20560469       1.007941     ; qtot 22.485
  1212     ha         1      MOL    H5           1212     0.32341270       1.007941     ; qtot 22.809
  1213     ha         1      MOL    H6           1213     0.21935405       1.007941     ; qtot 23.028
  1214     ha         1      MOL    H7           1214     0.27883421       1.007941     ; qtot 23.307
  1215     ha         1      MOL    H8           1215     0.20173056       1.007941     ; qtot 23.509
  1216     ha         1      MOL    H9           1216     0.27100244       1.007941     ; qtot 23.780
  1217     ha         1      MOL    H10          1217     0.18693139       1.007941     ; qtot 23.966
  1218     ha         1      MOL    H11          1218     0.20366112       1.007941     ; qtot 24.170
  1219     ha         1      MOL    H12          1219     0.22038259       1.007941     ; qtot 24.391
  1220     ha         1      MOL    H13          1220     0.19973813       1.007941     ; qtot 24.590
  1221     ha         1      MOL    H14          1221     0.19099797       1.007941     ; qtot 24.781
  1222     o          1      MOL    O4           1222     0.22121783      15.999405     ; qtot 25.002
  1223     ha         1      MOL    H15          1223    -0.73915253       1.007941     ; qtot 24.263
  1224     ha         1      MOL    H16          1224     0.20252401       1.007941     ; qtot 24.466
  1225     ha         1      MOL    H17          1225     0.21932308       1.007941     ; qtot 24.685
  1226     ha         1      MOL    H18          1226     0.22608478       1.007941     ; qtot 24.911
  1227     ha         1      MOL    H19          1227     0.21367359       1.007941     ; qtot 25.125
  1228     ha         1      MOL    H20          1228     0.19989100       1.007941     ; qtot 25.325
  1229     ha         1      MOL    H21          1229     0.19836987       1.007941     ; qtot 25.523
  1230     h4         1      MOL    H22          1230     0.21153706       1.007941     ; qtot 25.735
  1231     ha         1      MOL    H23          1231     0.21349288       1.007941     ; qtot 25.948
  1232     f          1      MOL    F12          1232     0.30829781      18.998403     ; qtot 26.257
  1233     c3         1      MOL    C47          1233     0.20429578      12.010736     ; qtot 26.461
  1234     h1         1      MOL    H24          1234    -0.23083548       1.007941     ; qtot 26.230
  1235     h1         1      MOL    H25          1235    -0.40929592       1.007941     ; qtot 25.821
  1236     h1         1      MOL    H26          1236     0.22048164       1.007941     ; qtot 26.041
  1237     na         1      MOL    N1           1237     0.22048164      14.006703     ; qtot 26.262
  1238     na         1      MOL    N2           1238     0.19290043      14.006703     ; qtot 26.455
  1239     c2         1      MOL    C1           1239     0.14879494      12.010736     ; qtot 26.603
  1240     ca         1      MOL    C2           1240     0.18109658      12.010736     ; qtot 26.784
  1241     ca         1      MOL    C3           1241     0.09988006      12.010736     ; qtot 26.884
  1242     ca         1      MOL    C4           1242    -0.12472416      12.010736     ; qtot 26.760
  1243     ca         1      MOL    C5           1243    -0.37670997      12.010736     ; qtot 26.383
  1244     ca         1      MOL    C6           1244     0.42410536      12.010736     ; qtot 26.807
  1245     ca         1      MOL    C7           1245    -0.35912031      12.010736     ; qtot 26.448
  1246     n          1      MOL    N3           1246    -0.12200639      14.006703     ; qtot 26.326
  1247     c          1      MOL    C8           1247    -0.40653626      12.010736     ; qtot 25.919
  1248     ca         1      MOL    C9           1248     0.81371513      12.010736     ; qtot 26.733
  1249     ca         1      MOL    C10          1249    -0.14818601      12.010736     ; qtot 26.585
  1250     c          1      MOL    C11          1250    -0.05821468      12.010736     ; qtot 26.527
  1251     o          1      MOL    O1           1251     0.76683414      15.999405     ; qtot 27.293
  1252     ca         1      MOL    C12          1252    -0.66724479      12.010736     ; qtot 26.626
  1253     ca         1      MOL    C13          1253    -0.12717142      12.010736     ; qtot 26.499
  1254     ca         1      MOL    C14          1254     0.23202956      12.010736     ; qtot 26.731
  1255     ca         1      MOL    C15          1255    -0.12600997      12.010736     ; qtot 26.605
  1256     ca         1      MOL    C16          1256    -0.19370283      12.010736     ; qtot 26.411
  1257     ca         1      MOL    C17          1257     0.25288698      12.010736     ; qtot 26.664
  1258     ca         1      MOL    C18          1258    -0.17901797      12.010736     ; qtot 26.485
  1259     ca         1      MOL    C19          1259    -0.10354150      12.010736     ; qtot 26.382
  1260     ca         1      MOL    C20          1260    -0.11956495      12.010736     ; qtot 26.262
  1261     ca         1      MOL    C21          1261    -0.08617917      12.010736     ; qtot 26.176
  1262     c3         1      MOL    C22          1262    -0.21430383      12.010736     ; qtot 25.962
  1263     c3         1      MOL    C23          1263    -0.52525105      12.010736     ; qtot 25.436
  1264     f          1      MOL    F1           1264     0.69688454      18.998403     ; qtot 26.133
  1265     f          1      MOL    F2           1265    -0.21727244      18.998403     ; qtot 25.916
  1266     f          1      MOL    F3           1266    -0.20444625      18.998403     ; qtot 25.712
  1267     c3         1      MOL    C24          1267    -0.21630880      12.010736     ; qtot 25.495
  1268     f          1      MOL    F4           1268     0.69767290      18.998403     ; qtot 26.193
  1269     f          1      MOL    F5           1269    -0.22042657      18.998403     ; qtot 25.973
  1270     f          1      MOL    F6           1270    -0.20630183      18.998403     ; qtot 25.766
  1271     o          1      MOL    O2           1271    -0.21466058      15.999405     ; qtot 25.552
  1272     c          1      MOL    C25          1272    -0.69756052      12.010736     ; qtot 24.854
  1273     n          1      MOL    N4           1273     0.88891905      14.006703     ; qtot 25.743
  1274     c          1      MOL    C26          1274    -0.78619212      12.010736     ; qtot 24.957
  1275     o          1      MOL    O3           1275     0.90807527      15.999405     ; qtot 25.865
  1276     ca         1      MOL    C27          1276    -0.74816420      12.010736     ; qtot 25.117
  1277     ca         1      MOL    C28          1277     0.09326384      12.010736     ; qtot 25.210
  1278     ca         1      MOL    C29          1278    -0.15737622      12.010736     ; qtot 25.053
  1279     ca         1      MOL    C30          1279    -0.17934704      12.010736     ; qtot 24.873
  1280     ca         1      MOL    C31          1280    -0.15614409      12.010736     ; qtot 24.717
  1281     ca         1      MOL    C32          1281    -0.14656743      12.010736     ; qtot 24.570
  1282     c2         1      MOL    C33          1282     0.09041700      12.010736     ; qtot 24.661
  1283     na         1      MOL    N5           1283     0.16344373      14.006703     ; qtot 24.824
  1284     na         1      MOL    N6           1284     0.04827003      14.006703     ; qtot 24.873
  1285     c2         1      MOL    C34          1285     0.31769869      12.010736     ; qtot 25.190
  1286     c2         1      MOL    C35          1286    -0.19960142      12.010736     ; qtot 24.991
  1287     c3         1      MOL    C36          1287    -0.07463554      12.010736     ; qtot 24.916
  1288     h1         1      MOL    H1           1288    -0.62463812       1.007941     ; qtot 24.291
  1289     h1         1      MOL    H2           1289     0.26548602       1.007941     ; qtot 24.557
  1290     h1         1      MOL    H3           1290     0.26548602       1.007941     ; qtot 24.822
  1291     ca         1      MOL    C37          1291     0.26548602      12.010736     ; qtot 25.088
  1292     ca         1      MOL    C38          1292     0.24922520      12.010736     ; qtot 25.337
  1293     ca         1      MOL    C39          1293    -0.20187393      12.010736     ; qtot 25.135
  1294     ca         1      MOL    C40          1294    -0.18318068      12.010736     ; qtot 24.952
  1295     ca         1      MOL    C41          1295    -0.14751308      12.010736     ; qtot 24.805
  1296     ca         1      MOL    C42          1296    -0.18527476      12.010736     ; qtot 24.619
  1297     c3         1      MOL    C43          1297    -0.20374249      12.010736     ; qtot 24.416
  1298     f          1      MOL    F7           1298     0.69893174      18.998403     ; qtot 25.114
  1299     f          1      MOL    F8           1299    -0.22692695      18.998403     ; qtot 24.888
  1300     f          1      MOL    F9           1300    -0.20559847      18.998403     ; qtot 24.682
  1301     c2         1      MOL    C44          1301    -0.22899252      12.010736     ; qtot 24.453
  1302     c2         1      MOL    C45          1302    -0.23924053      12.010736     ; qtot 24.214
  1303     c3         1      MOL    C46          1303    -0.03572039      12.010736     ; qtot 24.178
  1304     f          1      MOL    F10          1304     0.70750889      18.998403     ; qtot 24.885
  1305     f          1      MOL    F11          1305    -0.23202665      18.998403     ; qtot 24.653
  1306     h4         1      MOL    H4           1306    -0.20560469       1.007941     ; qtot 24.448
  1307     ha         1      MOL    H5           1307     0.32341270       1.007941     ; qtot 24.771
  1308     ha         1      MOL    H6           1308     0.21935405       1.007941     ; qtot 24.991
  1309     ha         1      MOL    H7           1309     0.27883421       1.007941     ; qtot 25.269
  1310     ha         1      MOL    H8           1310     0.20173056       1.007941     ; qtot 25.471
  1311     ha         1      MOL    H9           1311     0.27100244       1.007941     ; qtot 25.742
  1312     ha         1      MOL    H10          1312     0.18693139       1.007941     ; qtot 25.929
  1313     ha         1      MOL    H11          1313     0.20366112       1.007941     ; qtot 26.133
  1314     ha         1      MOL    H12          1314     0.22038259       1.007941     ; qtot 26.353
  1315     ha         1      MOL    H13          1315     0.19973813       1.007941     ; qtot 26.553
  1316     ha         1      MOL    H14          1316     0.19099797       1.007941     ; qtot 26.744
  1317     o          1      MOL    O4           1317     0.22121783      15.999405     ; qtot 26.965
  1318     ha         1      MOL    H15          1318    -0.73915253       1.007941     ; qtot 26.226
  1319     ha         1      MOL    H16          1319     0.20252401       1.007941     ; qtot 26.428
  1320     ha         1      MOL    H17          1320     0.21932308       1.007941     ; qtot 26.648
  1321     ha         1      MOL    H18          1321     0.22608478       1.007941     ; qtot 26.874
  1322     ha         1      MOL    H19          1322     0.21367359       1.007941     ; qtot 27.088
  1323     ha         1      MOL    H20          1323     0.19989100       1.007941     ; qtot 27.287
  1324     ha         1      MOL    H21          1324     0.19836987       1.007941     ; qtot 27.486
  1325     h4         1      MOL    H22          1325     0.21153706       1.007941     ; qtot 27.697
  1326     ha         1      MOL    H23          1326     0.21349288       1.007941     ; qtot 27.911
  1327     f          1      MOL    F12          1327     0.30829781      18.998403     ; qtot 28.219
  1328     c3         1      MOL    C47          1328     0.20429578      12.010736     ; qtot 28.423
  1329     h1         1      MOL    H24          1329    -0.23083548       1.007941     ; qtot 28.193
  1330     h1         1      MOL    H25          1330    -0.40929592       1.007941     ; qtot 27.783
  1331     h1         1      MOL    H26          1331     0.22048164       1.007941     ; qtot 28.004
  1332     na         1      MOL    N1           1332     0.22048164      14.006703     ; qtot 28.224
  1333     na         1      MOL    N2           1333     0.19290043      14.006703     ; qtot 28.417
  1334     c2         1      MOL    C1           1334     0.14879494      12.010736     ; qtot 28.566
  1335     ca         1      MOL    C2           1335     0.18109658      12.010736     ; qtot 28.747
  1336     ca         1      MOL    C3           1336     0.09988006      12.010736     ; qtot 28.847
  1337     ca         1      MOL    C4           1337    -0.12472416      12.010736     ; qtot 28.722
  1338     ca         1      MOL    C5           1338    -0.37670997      12.010736     ; qtot 28.346
  1339     ca         1      MOL    C6           1339     0.42410536      12.010736     ; qtot 28.770
  1340     ca         1      MOL    C7           1340    -0.35912031      12.010736     ; qtot 28.410
  1341     n          1      MOL    N3           1341    -0.12200639      14.006703     ; qtot 28.288
  1342     c          1      MOL    C8           1342    -0.40653626      12.010736     ; qtot 27.882
  1343     ca         1      MOL    C9           1343     0.81371513      12.010736     ; qtot 28.696
  1344     ca         1      MOL    C10          1344    -0.14818601      12.010736     ; qtot 28.547
  1345     c          1      MOL    C11          1345    -0.05821468      12.010736     ; qtot 28.489
  1346     o          1      MOL    O1           1346     0.76683414      15.999405     ; qtot 29.256
  1347     ca         1      MOL    C12          1347    -0.66724479      12.010736     ; qtot 28.589
  1348     ca         1      MOL    C13          1348    -0.12717142      12.010736     ; qtot 28.462
  1349     ca         1      MOL    C14          1349     0.23202956      12.010736     ; qtot 28.694
  1350     ca         1      MOL    C15          1350    -0.12600997      12.010736     ; qtot 28.568
  1351     ca         1      MOL    C16          1351    -0.19370283      12.010736     ; qtot 28.374
  1352     ca         1      MOL    C17          1352     0.25288698      12.010736     ; qtot 28.627
  1353     ca         1      MOL    C18          1353    -0.17901797      12.010736     ; qtot 28.448
  1354     ca         1      MOL    C19          1354    -0.10354150      12.010736     ; qtot 28.344
  1355     ca         1      MOL    C20          1355    -0.11956495      12.010736     ; qtot 28.225
  1356     ca         1      MOL    C21          1356    -0.08617917      12.010736     ; qtot 28.139
  1357     c3         1      MOL    C22          1357    -0.21430383      12.010736     ; qtot 27.924
  1358     c3         1      MOL    C23          1358    -0.52525105      12.010736     ; qtot 27.399
  1359     f          1      MOL    F1           1359     0.69688454      18.998403     ; qtot 28.096
  1360     f          1      MOL    F2           1360    -0.21727244      18.998403     ; qtot 27.879
  1361     f          1      MOL    F3           1361    -0.20444625      18.998403     ; qtot 27.674
  1362     c3         1      MOL    C24          1362    -0.21630880      12.010736     ; qtot 27.458
  1363     f          1      MOL    F4           1363     0.69767290      18.998403     ; qtot 28.156
  1364     f          1      MOL    F5           1364    -0.22042657      18.998403     ; qtot 27.935
  1365     f          1      MOL    F6           1365    -0.20630183      18.998403     ; qtot 27.729
  1366     o          1      MOL    O2           1366    -0.21466058      15.999405     ; qtot 27.514
  1367     c          1      MOL    C25          1367    -0.69756052      12.010736     ; qtot 26.817
  1368     n          1      MOL    N4           1368     0.88891905      14.006703     ; qtot 27.706
  1369     c          1      MOL    C26          1369    -0.78619212      12.010736     ; qtot 26.919
  1370     o          1      MOL    O3           1370     0.90807527      15.999405     ; qtot 27.827
  1371     ca         1      MOL    C27          1371    -0.74816420      12.010736     ; qtot 27.079
  1372     ca         1      MOL    C28          1372     0.09326384      12.010736     ; qtot 27.173
  1373     ca         1      MOL    C29          1373    -0.15737622      12.010736     ; qtot 27.015
  1374     ca         1      MOL    C30          1374    -0.17934704      12.010736     ; qtot 26.836
  1375     ca         1      MOL    C31          1375    -0.15614409      12.010736     ; qtot 26.680
  1376     ca         1      MOL    C32          1376    -0.14656743      12.010736     ; qtot 26.533
  1377     c2         1      MOL    C33          1377     0.09041700      12.010736     ; qtot 26.623
  1378     na         1      MOL    N5           1378     0.16344373      14.006703     ; qtot 26.787
  1379     na         1      MOL    N6           1379     0.04827003      14.006703     ; qtot 26.835
  1380     c2         1      MOL    C34          1380     0.31769869      12.010736     ; qtot 27.153
  1381     c2         1      MOL    C35          1381    -0.19960142      12.010736     ; qtot 26.953
  1382     c3         1      MOL    C36          1382    -0.07463554      12.010736     ; qtot 26.879
  1383     h1         1      MOL    H1           1383    -0.62463812       1.007941     ; qtot 26.254
  1384     h1         1      MOL    H2           1384     0.26548602       1.007941     ; qtot 26.520
  1385     h1         1      MOL    H3           1385     0.26548602       1.007941     ; qtot 26.785
  1386     ca         1      MOL    C37          1386     0.26548602      12.010736     ; qtot 27.050
  1387     ca         1      MOL    C38          1387     0.24922520      12.010736     ; qtot 27.300
  1388     ca         1      MOL    C39          1388    -0.20187393      12.010736     ; qtot 27.098
  1389     ca         1      MOL    C40          1389    -0.18318068      12.010736     ; qtot 26.915
  1390     ca         1      MOL    C41          1390    -0.14751308      12.010736     ; qtot 26.767
  1391     ca         1      MOL    C42          1391    -0.18527476      12.010736     ; qtot 26.582
  1392     c3         1      MOL    C43          1392    -0.20374249      12.010736     ; qtot 26.378
  1393     f          1      MOL    F7           1393     0.69893174      18.998403     ; qtot 27.077
  1394     f          1      MOL    F8           1394    -0.22692695      18.998403     ; qtot 26.850
  1395     f          1      MOL    F9           1395    -0.20559847      18.998403     ; qtot 26.645
  1396     c2         1      MOL    C44          1396    -0.22899252      12.010736     ; qtot 26.416
  1397     c2         1      MOL    C45          1397    -0.23924053      12.010736     ; qtot 26.176
  1398     c3         1      MOL    C46          1398    -0.03572039      12.010736     ; qtot 26.141
  1399     f          1      MOL    F10          1399     0.70750889      18.998403     ; qtot 26.848
  1400     f          1      MOL    F11          1400    -0.23202665      18.998403     ; qtot 26.616
  1401     h4         1      MOL    H4           1401    -0.20560469       1.007941     ; qtot 26.410
  1402     ha         1      MOL    H5           1402     0.32341270       1.007941     ; qtot 26.734
  1403     ha         1      MOL    H6           1403     0.21935405       1.007941     ; qtot 26.953
  1404     ha         1      MOL    H7           1404     0.27883421       1.007941     ; qtot 27.232
  1405     ha         1      MOL    H8           1405     0.20173056       1.007941     ; qtot 27.434
  1406     ha         1      MOL    H9           1406     0.27100244       1.007941     ; qtot 27.705
  1407     ha         1      MOL    H10          1407     0.18693139       1.007941     ; qtot 27.892
  1408     ha         1      MOL    H11          1408     0.20366112       1.007941     ; qtot 28.095
  1409     ha         1      MOL    H12          1409     0.22038259       1.007941     ; qtot 28.316
  1410     ha         1      MOL    H13          1410     0.19973813       1.007941     ; qtot 28.516
  1411     ha         1      MOL    H14          1411     0.19099797       1.007941     ; qtot 28.707
  1412     o          1      MOL    O4           1412     0.22121783      15.999405     ; qtot 28.928
  1413     ha         1      MOL    H15          1413    -0.73915253       1.007941     ; qtot 28.189
  1414     ha         1      MOL    H16          1414     0.20252401       1.007941     ; qtot 28.391
  1415     ha         1      MOL    H17          1415     0.21932308       1.007941     ; qtot 28.610
  1416     ha         1      MOL    H18          1416     0.22608478       1.007941     ; qtot 28.837
  1417     ha         1      MOL    H19          1417     0.21367359       1.007941     ; qtot 29.050
  1418     ha         1      MOL    H20          1418     0.19989100       1.007941     ; qtot 29.250
  1419     ha         1      MOL    H21          1419     0.19836987       1.007941     ; qtot 29.448
  1420     h4         1      MOL    H22          1420     0.21153706       1.007941     ; qtot 29.660
  1421     ha         1      MOL    H23          1421     0.21349288       1.007941     ; qtot 29.873
  1422     f          1      MOL    F12          1422     0.30829781      18.998403     ; qtot 30.182
  1423     c3         1      MOL    C47          1423     0.20429578      12.010736     ; qtot 30.386
  1424     h1         1      MOL    H24          1424    -0.23083548       1.007941     ; qtot 30.155
  1425     h1         1      MOL    H25          1425    -0.40929592       1.007941     ; qtot 29.746
  1426     h1         1      MOL    H26          1426     0.22048164       1.007941     ; qtot 29.966
  1427     na         1      MOL    N1           1427     0.22048164      14.006703     ; qtot 30.187
  1428     na         1      MOL    N2           1428     0.19290043      14.006703     ; qtot 30.380
  1429     c2         1      MOL    C1           1429     0.14879494      12.010736     ; qtot 30.529
  1430     ca         1      MOL    C2           1430     0.18109658      12.010736     ; qtot 30.710
  1431     ca         1      MOL    C3           1431     0.09988006      12.010736     ; qtot 30.810
  1432     ca         1      MOL    C4           1432    -0.12472416      12.010736     ; qtot 30.685
  1433     ca         1      MOL    C5           1433    -0.37670997      12.010736     ; qtot 30.308
  1434     ca         1      MOL    C6           1434     0.42410536      12.010736     ; qtot 30.732
  1435     ca         1      MOL    C7           1435    -0.35912031      12.010736     ; qtot 30.373
  1436     n          1      MOL    N3           1436    -0.12200639      14.006703     ; qtot 30.251
  1437     c          1      MOL    C8           1437    -0.40653626      12.010736     ; qtot 29.845
  1438     ca         1      MOL    C9           1438     0.81371513      12.010736     ; qtot 30.658
  1439     ca         1      MOL    C10          1439    -0.14818601      12.010736     ; qtot 30.510
  1440     c          1      MOL    C11          1440    -0.05821468      12.010736     ; qtot 30.452
  1441     o          1      MOL    O1           1441     0.76683414      15.999405     ; qtot 31.219
  1442     ca         1      MOL    C12          1442    -0.66724479      12.010736     ; qtot 30.551
  1443     ca         1      MOL    C13          1443    -0.12717142      12.010736     ; qtot 30.424
  1444     ca         1      MOL    C14          1444     0.23202956      12.010736     ; qtot 30.656
  1445     ca         1      MOL    C15          1445    -0.12600997      12.010736     ; qtot 30.530
  1446     ca         1      MOL    C16          1446    -0.19370283      12.010736     ; qtot 30.337
  1447     ca         1      MOL    C17          1447     0.25288698      12.010736     ; qtot 30.590
  1448     ca         1      MOL    C18          1448    -0.17901797      12.010736     ; qtot 30.410
  1449     ca         1      MOL    C19          1449    -0.10354150      12.010736     ; qtot 30.307
  1450     ca         1      MOL    C20          1450    -0.11956495      12.010736     ; qtot 30.187
  1451     ca         1      MOL    C21          1451    -0.08617917      12.010736     ; qtot 30.101
  1452     c3         1      MOL    C22          1452    -0.21430383      12.010736     ; qtot 29.887
  1453     c3         1      MOL    C23          1453    -0.52525105      12.010736     ; qtot 29.362
  1454     f          1      MOL    F1           1454     0.69688454      18.998403     ; qtot 30.059
  1455     f          1      MOL    F2           1455    -0.21727244      18.998403     ; qtot 29.841
  1456     f          1      MOL    F3           1456    -0.20444625      18.998403     ; qtot 29.637
  1457     c3         1      MOL    C24          1457    -0.21630880      12.010736     ; qtot 29.421
  1458     f          1      MOL    F4           1458     0.69767290      18.998403     ; qtot 30.118
  1459     f          1      MOL    F5           1459    -0.22042657      18.998403     ; qtot 29.898
  1460     f          1      MOL    F6           1460    -0.20630183      18.998403     ; qtot 29.691
  1461     o          1      MOL    O2           1461    -0.21466058      15.999405     ; qtot 29.477
  1462     c          1      MOL    C25          1462    -0.69756052      12.010736     ; qtot 28.779
  1463     n          1      MOL    N4           1463     0.88891905      14.006703     ; qtot 29.668
  1464     c          1      MOL    C26          1464    -0.78619212      12.010736     ; qtot 28.882
  1465     o          1      MOL    O3           1465     0.90807527      15.999405     ; qtot 29.790
  1466     ca         1      MOL    C27          1466    -0.74816420      12.010736     ; qtot 29.042
  1467     ca         1      MOL    C28          1467     0.09326384      12.010736     ; qtot 29.135
  1468     ca         1      MOL    C29          1468    -0.15737622      12.010736     ; qtot 28.978
  1469     ca         1      MOL    C30          1469    -0.17934704      12.010736     ; qtot 28.798
  1470     ca         1      MOL    C31          1470    -0.15614409      12.010736     ; qtot 28.642
  1471     ca         1      MOL    C32          1471    -0.14656743      12.010736     ; qtot 28.496
  1472     c2         1      MOL    C33          1472     0.09041700      12.010736     ; qtot 28.586
  1473     na         1      MOL    N5           1473     0.16344373      14.006703     ; qtot 28.750
  1474     na         1      MOL    N6           1474     0.04827003      14.006703     ; qtot 28.798
  1475     c2         1      MOL    C34          1475     0.31769869      12.010736     ; qtot 29.116
  1476     c2         1      MOL    C35          1476    -0.19960142      12.010736     ; qtot 28.916
  1477     c3         1      MOL    C36          1477    -0.07463554      12.010736     ; qtot 28.841
  1478     h1         1      MOL    H1           1478    -0.62463812       1.007941     ; qtot 28.217
  1479     h1         1      MOL    H2           1479     0.26548602       1.007941     ; qtot 28.482
  1480     h1         1      MOL    H3           1480     0.26548602       1.007941     ; qtot 28.748
  1481     ca         1      MOL    C37          1481     0.26548602      12.010736     ; qtot 29.013
  1482     ca         1      MOL    C38          1482     0.24922520      12.010736     ; qtot 29.262
  1483     ca         1      MOL    C39          1483    -0.20187393      12.010736     ; qtot 29.060
  1484     ca         1      MOL    C40          1484    -0.18318068      12.010736     ; qtot 28.877
  1485     ca         1      MOL    C41          1485    -0.14751308      12.010736     ; qtot 28.730
  1486     ca         1      MOL    C42          1486    -0.18527476      12.010736     ; qtot 28.544
  1487     c3         1      MOL    C43          1487    -0.20374249      12.010736     ; qtot 28.341
  1488     f          1      MOL    F7           1488     0.69893174      18.998403     ; qtot 29.040
  1489     f          1      MOL    F8           1489    -0.22692695      18.998403     ; qtot 28.813
  1490     f          1      MOL    F9           1490    -0.20559847      18.998403     ; qtot 28.607
  1491     c2         1      MOL    C44          1491    -0.22899252      12.010736     ; qtot 28.378
  1492     c2         1      MOL    C45          1492    -0.23924053      12.010736     ; qtot 28.139
  1493     c3         1      MOL    C46          1493    -0.03572039      12.010736     ; qtot 28.103
  1494     f          1      MOL    F10          1494     0.70750889      18.998403     ; qtot 28.811
  1495     f          1      MOL    F11          1495    -0.23202665      18.998403     ; qtot 28.579
  1496     h4         1      MOL    H4           1496    -0.20560469       1.007941     ; qtot 28.373
  1497     ha         1      MOL    H5           1497     0.32341270       1.007941     ; qtot 28.696
  1498     ha         1      MOL    H6           1498     0.21935405       1.007941     ; qtot 28.916
  1499     ha         1      MOL    H7           1499     0.27883421       1.007941     ; qtot 29.195
  1500     ha         1      MOL    H8           1500     0.20173056       1.007941     ; qtot 29.396
  1501     ha         1      MOL    H9           1501     0.27100244       1.007941     ; qtot 29.667
  1502     ha         1      MOL    H10          1502     0.18693139       1.007941     ; qtot 29.854
  1503     ha         1      MOL    H11          1503     0.20366112       1.007941     ; qtot 30.058
  1504     ha         1      MOL    H12          1504     0.22038259       1.007941     ; qtot 30.278
  1505     ha         1      MOL    H13          1505     0.19973813       1.007941     ; qtot 30.478
  1506     ha         1      MOL    H14          1506     0.19099797       1.007941     ; qtot 30.669
  1507     o          1      MOL    O4           1507     0.22121783      15.999405     ; qtot 30.890
  1508     ha         1      MOL    H15          1508    -0.73915253       1.007941     ; qtot 30.151
  1509     ha         1      MOL    H16          1509     0.20252401       1.007941     ; qtot 30.354
  1510     ha         1      MOL    H17          1510     0.21932308       1.007941     ; qtot 30.573
  1511     ha         1      MOL    H18          1511     0.22608478       1.007941     ; qtot 30.799
  1512     ha         1      MOL    H19          1512     0.21367359       1.007941     ; qtot 31.013
  1513     ha         1      MOL    H20          1513     0.19989100       1.007941     ; qtot 31.213
  1514     ha         1      MOL    H21          1514     0.19836987       1.007941     ; qtot 31.411
  1515     h4         1      MOL    H22          1515     0.21153706       1.007941     ; qtot 31.623
  1516     ha         1      MOL    H23          1516     0.21349288       1.007941     ; qtot 31.836
  1517     f          1      MOL    F12          1517     0.30829781      18.998403     ; qtot 32.144
  1518     c3         1      MOL    C47          1518     0.20429578      12.010736     ; qtot 32.349
  1519     h1         1      MOL    H24          1519    -0.23083548       1.007941     ; qtot 32.118
  1520     h1         1      MOL    H25          1520    -0.40929592       1.007941     ; qtot 31.709
  1521     h1         1      MOL    H26          1521     0.22048164       1.007941     ; qtot 31.929
  1522     na         1      MOL    N1           1522     0.22048164      14.006703     ; qtot 32.150
  1523     na         1      MOL    N2           1523     0.19290043      14.006703     ; qtot 32.342
  1524     c2         1      MOL    C1           1524     0.14879494      12.010736     ; qtot 32.491
  1525     ca         1      MOL    C2           1525     0.18109658      12.010736     ; qtot 32.672
  1526     ca         1      MOL    C3           1526     0.09988006      12.010736     ; qtot 32.772
  1527     ca         1      MOL    C4           1527    -0.12472416      12.010736     ; qtot 32.647
  1528     ca         1      MOL    C5           1528    -0.37670997      12.010736     ; qtot 32.271
  1529     ca         1      MOL    C6           1529     0.42410536      12.010736     ; qtot 32.695
  1530     ca         1      MOL    C7           1530    -0.35912031      12.010736     ; qtot 32.336
  1531     n          1      MOL    N3           1531    -0.12200639      14.006703     ; qtot 32.214
  1532     c          1      MOL    C8           1532    -0.40653626      12.010736     ; qtot 31.807
  1533     ca         1      MOL    C9           1533     0.81371513      12.010736     ; qtot 32.621
  1534     ca         1      MOL    C10          1534    -0.14818601      12.010736     ; qtot 32.473
  1535     c          1      MOL    C11          1535    -0.05821468      12.010736     ; qtot 32.415
  1536     o          1      MOL    O1           1536     0.76683414      15.999405     ; qtot 33.181
  1537     ca         1      MOL    C12          1537    -0.66724479      12.010736     ; qtot 32.514
  1538     ca         1      MOL    C13          1538    -0.12717142      12.010736     ; qtot 32.387
  1539     ca         1      MOL    C14          1539     0.23202956      12.010736     ; qtot 32.619
  1540     ca         1      MOL    C15          1540    -0.12600997      12.010736     ; qtot 32.493
  1541     ca         1      MOL    C16          1541    -0.19370283      12.010736     ; qtot 32.299
  1542     ca         1      MOL    C17          1542     0.25288698      12.010736     ; qtot 32.552
  1543     ca         1      MOL    C18          1543    -0.17901797      12.010736     ; qtot 32.373
  1544     ca         1      MOL    C19          1544    -0.10354150      12.010736     ; qtot 32.270
  1545     ca         1      MOL    C20          1545    -0.11956495      12.010736     ; qtot 32.150
  1546     ca         1      MOL    C21          1546    -0.08617917      12.010736     ; qtot 32.064
  1547     c3         1      MOL    C22          1547    -0.21430383      12.010736     ; qtot 31.850
  1548     c3         1      MOL    C23          1548    -0.52525105      12.010736     ; qtot 31.324
  1549     f          1      MOL    F1           1549     0.69688454      18.998403     ; qtot 32.021
  1550     f          1      MOL    F2           1550    -0.21727244      18.998403     ; qtot 31.804
  1551     f          1      MOL    F3           1551    -0.20444625      18.998403     ; qtot 31.599
  1552     c3         1      MOL    C24          1552    -0.21630880      12.010736     ; qtot 31.383
  1553     f          1      MOL    F4           1553     0.69767290      18.998403     ; qtot 32.081
  1554     f          1      MOL    F5           1554    -0.22042657      18.998403     ; qtot 31.860
  1555     f          1      MOL    F6           1555    -0.20630183      18.998403     ; qtot 31.654
  1556     o          1      MOL    O2           1556    -0.21466058      15.999405     ; qtot 31.439
  1557     c          1      MOL    C25          1557    -0.69756052      12.010736     ; qtot 30.742
  1558     n          1      MOL    N4           1558     0.88891905      14.006703     ; qtot 31.631
  1559     c          1      MOL    C26          1559    -0.78619212      12.010736     ; qtot 30.845
  1560     o          1      MOL    O3           1560     0.90807527      15.999405     ; qtot 31.753
  1561     ca         1      MOL    C27          1561    -0.74816420      12.010736     ; qtot 31.004
  1562     ca         1      MOL    C28          1562     0.09326384      12.010736     ; qtot 31.098
  1563     ca         1      MOL    C29          1563    -0.15737622      12.010736     ; qtot 30.940
  1564     ca         1      MOL    C30          1564    -0.17934704      12.010736     ; qtot 30.761
  1565     ca         1      MOL    C31          1565    -0.15614409      12.010736     ; qtot 30.605
  1566     ca         1      MOL    C32          1566    -0.14656743      12.010736     ; qtot 30.458
  1567     c2         1      MOL    C33          1567     0.09041700      12.010736     ; qtot 30.549
  1568     na         1      MOL    N5           1568     0.16344373      14.006703     ; qtot 30.712
  1569     na         1      MOL    N6           1569     0.04827003      14.006703     ; qtot 30.760
  1570     c2         1      MOL    C34          1570     0.31769869      12.010736     ; qtot 31.078
  1571     c2         1      MOL    C35          1571    -0.19960142      12.010736     ; qtot 30.879
  1572     c3         1      MOL    C36          1572    -0.07463554      12.010736     ; qtot 30.804
  1573     h1         1      MOL    H1           1573    -0.62463812       1.007941     ; qtot 30.179
  1574     h1         1      MOL    H2           1574     0.26548602       1.007941     ; qtot 30.445
  1575     h1         1      MOL    H3           1575     0.26548602       1.007941     ; qtot 30.710
  1576     ca         1      MOL    C37          1576     0.26548602      12.010736     ; qtot 30.976
  1577     ca         1      MOL    C38          1577     0.24922520      12.010736     ; qtot 31.225
  1578     ca         1      MOL    C39          1578    -0.20187393      12.010736     ; qtot 31.023
  1579     ca         1      MOL    C40          1579    -0.18318068      12.010736     ; qtot 30.840
  1580     ca         1      MOL    C41          1580    -0.14751308      12.010736     ; qtot 30.692
  1581     ca         1      MOL    C42          1581    -0.18527476      12.010736     ; qtot 30.507
  1582     c3         1      MOL    C43          1582    -0.20374249      12.010736     ; qtot 30.303
  1583     f          1      MOL    F7           1583     0.69893174      18.998403     ; qtot 31.002
  1584     f          1      MOL    F8           1584    -0.22692695      18.998403     ; qtot 30.775
  1585     f          1      MOL    F9           1585    -0.20559847      18.998403     ; qtot 30.570
  1586     c2         1      MOL    C44          1586    -0.22899252      12.010736     ; qtot 30.341
  1587     c2         1      MOL    C45          1587    -0.23924053      12.010736     ; qtot 30.102
  1588     c3         1      MOL    C46          1588    -0.03572039      12.010736     ; qtot 30.066
  1589     f          1      MOL    F10          1589     0.70750889      18.998403     ; qtot 30.773
  1590     f          1      MOL    F11          1590    -0.23202665      18.998403     ; qtot 30.541
  1591     h4         1      MOL    H4           1591    -0.20560469       1.007941     ; qtot 30.336
  1592     ha         1      MOL    H5           1592     0.32341270       1.007941     ; qtot 30.659
  1593     ha         1      MOL    H6           1593     0.21935405       1.007941     ; qtot 30.878
  1594     ha         1      MOL    H7           1594     0.27883421       1.007941     ; qtot 31.157
  1595     ha         1      MOL    H8           1595     0.20173056       1.007941     ; qtot 31.359
  1596     ha         1      MOL    H9           1596     0.27100244       1.007941     ; qtot 31.630
  1597     ha         1      MOL    H10          1597     0.18693139       1.007941     ; qtot 31.817
  1598     ha         1      MOL    H11          1598     0.20366112       1.007941     ; qtot 32.021
  1599     ha         1      MOL    H12          1599     0.22038259       1.007941     ; qtot 32.241
  1600     ha         1      MOL    H13          1600     0.19973813       1.007941     ; qtot 32.441
  1601     ha         1      MOL    H14          1601     0.19099797       1.007941     ; qtot 32.632
  1602     o          1      MOL    O4           1602     0.22121783      15.999405     ; qtot 32.853
  1603     ha         1      MOL    H15          1603    -0.73915253       1.007941     ; qtot 32.114
  1604     ha         1      MOL    H16          1604     0.20252401       1.007941     ; qtot 32.316
  1605     ha         1      MOL    H17          1605     0.21932308       1.007941     ; qtot 32.536
  1606     ha         1      MOL    H18          1606     0.22608478       1.007941     ; qtot 32.762
  1607     ha         1      MOL    H19          1607     0.21367359       1.007941     ; qtot 32.975
  1608     ha         1      MOL    H20          1608     0.19989100       1.007941     ; qtot 33.175
  1609     ha         1      MOL    H21          1609     0.19836987       1.007941     ; qtot 33.374
  1610     h4         1      MOL    H22          1610     0.21153706       1.007941     ; qtot 33.585
  1611     ha         1      MOL    H23          1611     0.21349288       1.007941     ; qtot 33.799
  1612     f          1      MOL    F12          1612     0.30829781      18.998403     ; qtot 34.107
  1613     c3         1      MOL    C47          1613     0.20429578      12.010736     ; qtot 34.311
  1614     h1         1      MOL    H24          1614    -0.23083548       1.007941     ; qtot 34.080
  1615     h1         1      MOL    H25          1615    -0.40929592       1.007941     ; qtot 33.671
  1616     h1         1      MOL    H26          1616     0.22048164       1.007941     ; qtot 33.892
  1617     na         1      MOL    N1           1617     0.22048164      14.006703     ; qtot 34.112
  1618     na         1      MOL    N2           1618     0.19290043      14.006703     ; qtot 34.305
  1619     c2         1      MOL    C1           1619     0.14879494      12.010736     ; qtot 34.454
  1620     ca         1      MOL    C2           1620     0.18109658      12.010736     ; qtot 34.635
  1621     ca         1      MOL    C3           1621     0.09988006      12.010736     ; qtot 34.735
  1622     ca         1      MOL    C4           1622    -0.12472416      12.010736     ; qtot 34.610
  1623     ca         1      MOL    C5           1623    -0.37670997      12.010736     ; qtot 34.233
  1624     ca         1      MOL    C6           1624     0.42410536      12.010736     ; qtot 34.657
  1625     ca         1      MOL    C7           1625    -0.35912031      12.010736     ; qtot 34.298
  1626     n          1      MOL    N3           1626    -0.12200639      14.006703     ; qtot 34.176
  1627     c          1      MOL    C8           1627    -0.40653626      12.010736     ; qtot 33.770
  1628     ca         1      MOL    C9           1628     0.81371513      12.010736     ; qtot 34.584
  1629     ca         1      MOL    C10          1629    -0.14818601      12.010736     ; qtot 34.435
  1630     c          1      MOL    C11          1630    -0.05821468      12.010736     ; qtot 34.377
  1631     o          1      MOL    O1           1631     0.76683414      15.999405     ; qtot 35.144
  1632     ca         1      MOL    C12          1632    -0.66724479      12.010736     ; qtot 34.477
  1633     ca         1      MOL    C13          1633    -0.12717142      12.010736     ; qtot 34.350
  1634     ca         1      MOL    C14          1634     0.23202956      12.010736     ; qtot 34.582
  1635     ca         1      MOL    C15          1635    -0.12600997      12.010736     ; qtot 34.456
  1636     ca         1      MOL    C16          1636    -0.19370283      12.010736     ; qtot 34.262
  1637     ca         1      MOL    C17          1637     0.25288698      12.010736     ; qtot 34.515
  1638     ca         1      MOL    C18          1638    -0.17901797      12.010736     ; qtot 34.336
  1639     ca         1      MOL    C19          1639    -0.10354150      12.010736     ; qtot 34.232
  1640     ca         1      MOL    C20          1640    -0.11956495      12.010736     ; qtot 34.113
  1641     ca         1      MOL    C21          1641    -0.08617917      12.010736     ; qtot 34.026
  1642     c3         1      MOL    C22          1642    -0.21430383      12.010736     ; qtot 33.812
  1643     c3         1      MOL    C23          1643    -0.52525105      12.010736     ; qtot 33.287
  1644     f          1      MOL    F1           1644     0.69688454      18.998403     ; qtot 33.984
  1645     f          1      MOL    F2           1645    -0.21727244      18.998403     ; qtot 33.767
  1646     f          1      MOL    F3           1646    -0.20444625      18.998403     ; qtot 33.562
  1647     c3         1      MOL    C24          1647    -0.21630880      12.010736     ; qtot 33.346
  1648     f          1      MOL    F4           1648     0.69767290      18.998403     ; qtot 34.043
  1649     f          1      MOL    F5           1649    -0.22042657      18.998403     ; qtot 33.823
  1650     f          1      MOL    F6           1650    -0.20630183      18.998403     ; qtot 33.617
  1651     o          1      MOL    O2           1651    -0.21466058      15.999405     ; qtot 33.402
  1652     c          1      MOL    C25          1652    -0.69756052      12.010736     ; qtot 32.704
  1653     n          1      MOL    N4           1653     0.88891905      14.006703     ; qtot 33.593
  1654     c          1      MOL    C26          1654    -0.78619212      12.010736     ; qtot 32.807
  1655     o          1      MOL    O3           1655     0.90807527      15.999405     ; qtot 33.715
  1656     ca         1      MOL    C27          1656    -0.74816420      12.010736     ; qtot 32.967
  1657     ca         1      MOL    C28          1657     0.09326384      12.010736     ; qtot 33.060
  1658     ca         1      MOL    C29          1658    -0.15737622      12.010736     ; qtot 32.903
  1659     ca         1      MOL    C30          1659    -0.17934704      12.010736     ; qtot 32.724
  1660     ca         1      MOL    C31          1660    -0.15614409      12.010736     ; qtot 32.568
  1661     ca         1      MOL    C32          1661    -0.14656743      12.010736     ; qtot 32.421
  1662     c2         1      MOL    C33          1662     0.09041700      12.010736     ; qtot 32.511
  1663     na         1      MOL    N5           1663     0.16344373      14.006703     ; qtot 32.675
  1664     na         1      MOL    N6           1664     0.04827003      14.006703     ; qtot 32.723
  1665     c2         1      MOL    C34          1665     0.31769869      12.010736     ; qtot 33.041
  1666     c2         1      MOL    C35          1666    -0.19960142      12.010736     ; qtot 32.841
  1667     c3         1      MOL    C36          1667    -0.07463554      12.010736     ; qtot 32.767
  1668     h1         1      MOL    H1           1668    -0.62463812       1.007941     ; qtot 32.142
  1669     h1         1      MOL    H2           1669     0.26548602       1.007941     ; qtot 32.407
  1670     h1         1      MOL    H3           1670     0.26548602       1.007941     ; qtot 32.673
  1671     ca         1      MOL    C37          1671     0.26548602      12.010736     ; qtot 32.938
  1672     ca         1      MOL    C38          1672     0.24922520      12.010736     ; qtot 33.188
  1673     ca         1      MOL    C39          1673    -0.20187393      12.010736     ; qtot 32.986
  1674     ca         1      MOL    C40          1674    -0.18318068      12.010736     ; qtot 32.803
  1675     ca         1      MOL    C41          1675    -0.14751308      12.010736     ; qtot 32.655
  1676     ca         1      MOL    C42          1676    -0.18527476      12.010736     ; qtot 32.470
  1677     c3         1      MOL    C43          1677    -0.20374249      12.010736     ; qtot 32.266
  1678     f          1      MOL    F7           1678     0.69893174      18.998403     ; qtot 32.965
  1679     f          1      MOL    F8           1679    -0.22692695      18.998403     ; qtot 32.738
  1680     f          1      MOL    F9           1680    -0.20559847      18.998403     ; qtot 32.532
  1681     c2         1      MOL    C44          1681    -0.22899252      12.010736     ; qtot 32.303
  1682     c2         1      MOL    C45          1682    -0.23924053      12.010736     ; qtot 32.064
  1683     c3         1      MOL    C46          1683    -0.03572039      12.010736     ; qtot 32.028
  1684     f          1      MOL    F10          1684     0.70750889      18.998403     ; qtot 32.736
  1685     f          1      MOL    F11          1685    -0.23202665      18.998403     ; qtot 32.504
  1686     h4         1      MOL    H4           1686    -0.20560469       1.007941     ; qtot 32.298
  1687     ha         1      MOL    H5           1687     0.32341270       1.007941     ; qtot 32.622
  1688     ha         1      MOL    H6           1688     0.21935405       1.007941     ; qtot 32.841
  1689     ha         1      MOL    H7           1689     0.27883421       1.007941     ; qtot 33.120
  1690     ha         1      MOL    H8           1690     0.20173056       1.007941     ; qtot 33.322
  1691     ha         1      MOL    H9           1691     0.27100244       1.007941     ; qtot 33.593
  1692     ha         1      MOL    H10          1692     0.18693139       1.007941     ; qtot 33.780
  1693     ha         1      MOL    H11          1693     0.20366112       1.007941     ; qtot 33.983
  1694     ha         1      MOL    H12          1694     0.22038259       1.007941     ; qtot 34.204
  1695     ha         1      MOL    H13          1695     0.19973813       1.007941     ; qtot 34.403
  1696     ha         1      MOL    H14          1696     0.19099797       1.007941     ; qtot 34.594
  1697     o          1      MOL    O4           1697     0.22121783      15.999405     ; qtot 34.816
  1698     ha         1      MOL    H15          1698    -0.73915253       1.007941     ; qtot 34.076
  1699     ha         1      MOL    H16          1699     0.20252401       1.007941     ; qtot 34.279
  1700     ha         1      MOL    H17          1700     0.21932308       1.007941     ; qtot 34.498
  1701     ha         1      MOL    H18          1701     0.22608478       1.007941     ; qtot 34.724
  1702     ha         1      MOL    H19          1702     0.21367359       1.007941     ; qtot 34.938
  1703     ha         1      MOL    H20          1703     0.19989100       1.007941     ; qtot 35.138
  1704     ha         1      MOL    H21          1704     0.19836987       1.007941     ; qtot 35.336
  1705     h4         1      MOL    H22          1705     0.21153706       1.007941     ; qtot 35.548
  1706     ha         1      MOL    H23          1706     0.21349288       1.007941     ; qtot 35.761
  1707     f          1      MOL    F12          1707     0.30829781      18.998403     ; qtot 36.070
  1708     c3         1      MOL    C47          1708     0.20429578      12.010736     ; qtot 36.274
  1709     h1         1      MOL    H24          1709    -0.23083548       1.007941     ; qtot 36.043
  1710     h1         1      MOL    H25          1710    -0.40929592       1.007941     ; qtot 35.634
  1711     h1         1      MOL    H26          1711     0.22048164       1.007941     ; qtot 35.854
  1712     na         1      MOL    N1           1712     0.22048164      14.006703     ; qtot 36.075
  1713     na         1      MOL    N2           1713     0.19290043      14.006703     ; qtot 36.268
  1714     c2         1      MOL    C1           1714     0.14879494      12.010736     ; qtot 36.416
  1715     ca         1      MOL    C2           1715     0.18109658      12.010736     ; qtot 36.598
  1716     ca         1      MOL    C3           1716     0.09988006      12.010736     ; qtot 36.697
  1717     ca         1      MOL    C4           1717    -0.12472416      12.010736     ; qtot 36.573
  1718     ca         1      MOL    C5           1718    -0.37670997      12.010736     ; qtot 36.196
  1719     ca         1      MOL    C6           1719     0.42410536      12.010736     ; qtot 36.620
  1720     ca         1      MOL    C7           1720    -0.35912031      12.010736     ; qtot 36.261
  1721     n          1      MOL    N3           1721    -0.12200639      14.006703     ; qtot 36.139
  1722     c          1      MOL    C8           1722    -0.40653626      12.010736     ; qtot 35.732
  1723     ca         1      MOL    C9           1723     0.81371513      12.010736     ; qtot 36.546
  1724     ca         1      MOL    C10          1724    -0.14818601      12.010736     ; qtot 36.398
  1725     c          1      MOL    C11          1725    -0.05821468      12.010736     ; qtot 36.340
  1726     o          1      MOL    O1           1726     0.76683414      15.999405     ; qtot 37.107
  1727     ca         1      MOL    C12          1727    -0.66724479      12.010736     ; qtot 36.439
  1728     ca         1      MOL    C13          1728    -0.12717142      12.010736     ; qtot 36.312
  1729     ca         1      MOL    C14          1729     0.23202956      12.010736     ; qtot 36.544
  1730     ca         1      MOL    C15          1730    -0.12600997      12.010736     ; qtot 36.418
  1731     ca         1      MOL    C16          1731    -0.19370283      12.010736     ; qtot 36.224
  1732     ca         1      MOL    C17          1732     0.25288698      12.010736     ; qtot 36.477
  1733     ca         1      MOL    C18          1733    -0.17901797      12.010736     ; qtot 36.298
  1734     ca         1      MOL    C19          1734    -0.10354150      12.010736     ; qtot 36.195
  1735     ca         1      MOL    C20          1735    -0.11956495      12.010736     ; qtot 36.075
  1736     ca         1      MOL    C21          1736    -0.08617917      12.010736     ; qtot 35.989
  1737     c3         1      MOL    C22          1737    -0.21430383      12.010736     ; qtot 35.775
  1738     c3         1      MOL    C23          1738    -0.52525105      12.010736     ; qtot 35.250
  1739     f          1      MOL    F1           1739     0.69688454      18.998403     ; qtot 35.946
  1740     f          1      MOL    F2           1740    -0.21727244      18.998403     ; qtot 35.729
  1741     f          1      MOL    F3           1741    -0.20444625      18.998403     ; qtot 35.525
  1742     c3         1      MOL    C24          1742    -0.21630880      12.010736     ; qtot 35.308
  1743     f          1      MOL    F4           1743     0.69767290      18.998403     ; qtot 36.006
  1744     f          1      MOL    F5           1744    -0.22042657      18.998403     ; qtot 35.786
  1745     f          1      MOL    F6           1745    -0.20630183      18.998403     ; qtot 35.579
  1746     o          1      MOL    O2           1746    -0.21466058      15.999405     ; qtot 35.365
  1747     c          1      MOL    C25          1747    -0.69756052      12.010736     ; qtot 34.667
  1748     n          1      MOL    N4           1748     0.88891905      14.006703     ; qtot 35.556
  1749     c          1      MOL    C26          1749    -0.78619212      12.010736     ; qtot 34.770
  1750     o          1      MOL    O3           1750     0.90807527      15.999405     ; qtot 35.678
  1751     ca         1      MOL    C27          1751    -0.74816420      12.010736     ; qtot 34.930
  1752     ca         1      MOL    C28          1752     0.09326384      12.010736     ; qtot 35.023
  1753     ca         1      MOL    C29          1753    -0.15737622      12.010736     ; qtot 34.866
  1754     ca         1      MOL    C30          1754    -0.17934704      12.010736     ; qtot 34.686
  1755     ca         1      MOL    C31          1755    -0.15614409      12.010736     ; qtot 34.530
  1756     ca         1      MOL    C32          1756    -0.14656743      12.010736     ; qtot 34.384
  1757     c2         1      MOL    C33          1757     0.09041700      12.010736     ; qtot 34.474
  1758     na         1      MOL    N5           1758     0.16344373      14.006703     ; qtot 34.637
  1759     na         1      MOL    N6           1759     0.04827003      14.006703     ; qtot 34.686
  1760     c2         1      MOL    C34          1760     0.31769869      12.010736     ; qtot 35.003
  1761     c2         1      MOL    C35          1761    -0.19960142      12.010736     ; qtot 34.804
  1762     c3         1      MOL    C36          1762    -0.07463554      12.010736     ; qtot 34.729
  1763     h1         1      MOL    H1           1763    -0.62463812       1.007941     ; qtot 34.105
  1764     h1         1      MOL    H2           1764     0.26548602       1.007941     ; qtot 34.370
  1765     h1         1      MOL    H3           1765     0.26548602       1.007941     ; qtot 34.635
  1766     ca         1      MOL    C37          1766     0.26548602      12.010736     ; qtot 34.901
  1767     ca         1      MOL    C38          1767     0.24922520      12.010736     ; qtot 35.150
  1768     ca         1      MOL    C39          1768    -0.20187393      12.010736     ; qtot 34.948
  1769     ca         1      MOL    C40          1769    -0.18318068      12.010736     ; qtot 34.765
  1770     ca         1      MOL    C41          1770    -0.14751308      12.010736     ; qtot 34.618
  1771     ca         1      MOL    C42          1771    -0.18527476      12.010736     ; qtot 34.432
  1772     c3         1      MOL    C43          1772    -0.20374249      12.010736     ; qtot 34.229
  1773     f          1      MOL    F7           1773     0.69893174      18.998403     ; qtot 34.928
  1774     f          1      MOL    F8           1774    -0.22692695      18.998403     ; qtot 34.701
  1775     f          1      MOL    F9           1775    -0.20559847      18.998403     ; qtot 34.495
  1776     c2         1      MOL    C44          1776    -0.22899252      12.010736     ; qtot 34.266
  1777     c2         1      MOL    C45          1777    -0.23924053      12.010736     ; qtot 34.027
  1778     c3         1      MOL    C46          1778    -0.03572039      12.010736     ; qtot 33.991
  1779     f          1      MOL    F10          1779     0.70750889      18.998403     ; qtot 34.699
  1780     f          1      MOL    F11          1780    -0.23202665      18.998403     ; qtot 34.467
  1781     h4         1      MOL    H4           1781    -0.20560469       1.007941     ; qtot 34.261
  1782     ha         1      MOL    H5           1782     0.32341270       1.007941     ; qtot 34.584
  1783     ha         1      MOL    H6           1783     0.21935405       1.007941     ; qtot 34.804
  1784     ha         1      MOL    H7           1784     0.27883421       1.007941     ; qtot 35.083
  1785     ha         1      MOL    H8           1785     0.20173056       1.007941     ; qtot 35.284
  1786     ha         1      MOL    H9           1786     0.27100244       1.007941     ; qtot 35.555
  1787     ha         1      MOL    H10          1787     0.18693139       1.007941     ; qtot 35.742
  1788     ha         1      MOL    H11          1788     0.20366112       1.007941     ; qtot 35.946
  1789     ha         1      MOL    H12          1789     0.22038259       1.007941     ; qtot 36.166
  1790     ha         1      MOL    H13          1790     0.19973813       1.007941     ; qtot 36.366
  1791     ha         1      MOL    H14          1791     0.19099797       1.007941     ; qtot 36.557
  1792     o          1      MOL    O4           1792     0.22121783      15.999405     ; qtot 36.778
  1793     ha         1      MOL    H15          1793    -0.73915253       1.007941     ; qtot 36.039
  1794     ha         1      MOL    H16          1794     0.20252401       1.007941     ; qtot 36.242
  1795     ha         1      MOL    H17          1795     0.21932308       1.007941     ; qtot 36.461
  1796     ha         1      MOL    H18          1796     0.22608478       1.007941     ; qtot 36.687
  1797     ha         1      MOL    H19          1797     0.21367359       1.007941     ; qtot 36.901
  1798     ha         1      MOL    H20          1798     0.19989100       1.007941     ; qtot 37.101
  1799     ha         1      MOL    H21          1799     0.19836987       1.007941     ; qtot 37.299
  1800     h4         1      MOL    H22          1800     0.21153706       1.007941     ; qtot 37.510
  1801     ha         1      MOL    H23          1801     0.21349288       1.007941     ; qtot 37.724
  1802     f          1      MOL    F12          1802     0.30829781      18.998403     ; qtot 38.032
  1803     c3         1      MOL    C47          1803     0.20429578      12.010736     ; qtot 38.237
  1804     h1         1      MOL    H24          1804    -0.23083548       1.007941     ; qtot 38.006
  1805     h1         1      MOL    H25          1805    -0.40929592       1.007941     ; qtot 37.596
  1806     h1         1      MOL    H26          1806     0.22048164       1.007941     ; qtot 37.817
  1807     na         1      MOL    N1           1807     0.22048164      14.006703     ; qtot 38.037
  1808     na         1      MOL    N2           1808     0.19290043      14.006703     ; qtot 38.230
  1809     c2         1      MOL    C1           1809     0.14879494      12.010736     ; qtot 38.379
  1810     ca         1      MOL    C2           1810     0.18109658      12.010736     ; qtot 38.560
  1811     ca         1      MOL    C3           1811     0.09988006      12.010736     ; qtot 38.660
  1812     ca         1      MOL    C4           1812    -0.12472416      12.010736     ; qtot 38.535
  1813     ca         1      MOL    C5           1813    -0.37670997      12.010736     ; qtot 38.159
  1814     ca         1      MOL    C6           1814     0.42410536      12.010736     ; qtot 38.583
  1815     ca         1      MOL    C7           1815    -0.35912031      12.010736     ; qtot 38.224
  1816     n          1      MOL    N3           1816    -0.12200639      14.006703     ; qtot 38.102
  1817     c          1      MOL    C8           1817    -0.40653626      12.010736     ; qtot 37.695
  1818     ca         1      MOL    C9           1818     0.81371513      12.010736     ; qtot 38.509
  1819     ca         1      MOL    C10          1819    -0.14818601      12.010736     ; qtot 38.361
  1820     c          1      MOL    C11          1820    -0.05821468      12.010736     ; qtot 38.302
  1821     o          1      MOL    O1           1821     0.76683414      15.999405     ; qtot 39.069
  1822     ca         1      MOL    C12          1822    -0.66724479      12.010736     ; qtot 38.402
  1823     ca         1      MOL    C13          1823    -0.12717142      12.010736     ; qtot 38.275
  1824     ca         1      MOL    C14          1824     0.23202956      12.010736     ; qtot 38.507
  1825     ca         1      MOL    C15          1825    -0.12600997      12.010736     ; qtot 38.381
  1826     ca         1      MOL    C16          1826    -0.19370283      12.010736     ; qtot 38.187
  1827     ca         1      MOL    C17          1827     0.25288698      12.010736     ; qtot 38.440
  1828     ca         1      MOL    C18          1828    -0.17901797      12.010736     ; qtot 38.261
  1829     ca         1      MOL    C19          1829    -0.10354150      12.010736     ; qtot 38.157
  1830     ca         1      MOL    C20          1830    -0.11956495      12.010736     ; qtot 38.038
  1831     ca         1      MOL    C21          1831    -0.08617917      12.010736     ; qtot 37.952
  1832     c3         1      MOL    C22          1832    -0.21430383      12.010736     ; qtot 37.737
  1833     c3         1      MOL    C23          1833    -0.52525105      12.010736     ; qtot 37.212
  1834     f          1      MOL    F1           1834     0.69688454      18.998403     ; qtot 37.909
  1835     f          1      MOL    F2           1835    -0.21727244      18.998403     ; qtot 37.692
  1836     f          1      MOL    F3           1836    -0.20444625      18.998403     ; qtot 37.487
  1837     c3         1      MOL    C24          1837    -0.21630880      12.010736     ; qtot 37.271
  1838     f          1      MOL    F4           1838     0.69767290      18.998403     ; qtot 37.969
  1839     f          1      MOL    F5           1839    -0.22042657      18.998403     ; qtot 37.748
  1840     f          1      MOL    F6           1840    -0.20630183      18.998403     ; qtot 37.542
  1841     o          1      MOL    O2           1841    -0.21466058      15.999405     ; qtot 37.327
  1842     c          1      MOL    C25          1842    -0.69756052      12.010736     ; qtot 36.630
  1843     n          1      MOL    N4           1843     0.88891905      14.006703     ; qtot 37.519
  1844     c          1      MOL    C26          1844    -0.78619212      12.010736     ; qtot 36.732
  1845     o          1      MOL    O3           1845     0.90807527      15.999405     ; qtot 37.641
  1846     ca         1      MOL    C27          1846    -0.74816420      12.010736     ; qtot 36.892
  1847     ca         1      MOL    C28          1847     0.09326384      12.010736     ; qtot 36.986
  1848     ca         1      MOL    C29          1848    -0.15737622      12.010736     ; qtot 36.828
  1849     ca         1      MOL    C30          1849    -0.17934704      12.010736     ; qtot 36.649
  1850     ca         1      MOL    C31          1850    -0.15614409      12.010736     ; qtot 36.493
  1851     ca         1      MOL    C32          1851    -0.14656743      12.010736     ; qtot 36.346
  1852     c2         1      MOL    C33          1852     0.09041700      12.010736     ; qtot 36.437
  1853     na         1      MOL    N5           1853     0.16344373      14.006703     ; qtot 36.600
  1854     na         1      MOL    N6           1854     0.04827003      14.006703     ; qtot 36.648
  1855     c2         1      MOL    C34          1855     0.31769869      12.010736     ; qtot 36.966
  1856     c2         1      MOL    C35          1856    -0.19960142      12.010736     ; qtot 36.766
  1857     c3         1      MOL    C36          1857    -0.07463554      12.010736     ; qtot 36.692
  1858     h1         1      MOL    H1           1858    -0.62463812       1.007941     ; qtot 36.067
  1859     h1         1      MOL    H2           1859     0.26548602       1.007941     ; qtot 36.333
  1860     h1         1      MOL    H3           1860     0.26548602       1.007941     ; qtot 36.598
  1861     ca         1      MOL    C37          1861     0.26548602      12.010736     ; qtot 36.864
  1862     ca         1      MOL    C38          1862     0.24922520      12.010736     ; qtot 37.113
  1863     ca         1      MOL    C39          1863    -0.20187393      12.010736     ; qtot 36.911
  1864     ca         1      MOL    C40          1864    -0.18318068      12.010736     ; qtot 36.728
  1865     ca         1      MOL    C41          1865    -0.14751308      12.010736     ; qtot 36.580
  1866     ca         1      MOL    C42          1866    -0.18527476      12.010736     ; qtot 36.395
  1867     c3         1      MOL    C43          1867    -0.20374249      12.010736     ; qtot 36.191
  1868     f          1      MOL    F7           1868     0.69893174      18.998403     ; qtot 36.890
  1869     f          1      MOL    F8           1869    -0.22692695      18.998403     ; qtot 36.663
  1870     f          1      MOL    F9           1870    -0.20559847      18.998403     ; qtot 36.458
  1871     c2         1      MOL    C44          1871    -0.22899252      12.010736     ; qtot 36.229
  1872     c2         1      MOL    C45          1872    -0.23924053      12.010736     ; qtot 35.989
  1873     c3         1      MOL    C46          1873    -0.03572039      12.010736     ; qtot 35.954
  1874     f          1      MOL    F10          1874     0.70750889      18.998403     ; qtot 36.661
  1875     f          1      MOL    F11          1875    -0.23202665      18.998403     ; qtot 36.429
  1876     h4         1      MOL    H4           1876    -0.20560469       1.007941     ; qtot 36.224
  1877     ha         1      MOL    H5           1877     0.32341270       1.007941     ; qtot 36.547
  1878     ha         1      MOL    H6           1878     0.21935405       1.007941     ; qtot 36.766
  1879     ha         1      MOL    H7           1879     0.27883421       1.007941     ; qtot 37.045
  1880     ha         1      MOL    H8           1880     0.20173056       1.007941     ; qtot 37.247
  1881     ha         1      MOL    H9           1881     0.27100244       1.007941     ; qtot 37.518
  1882     ha         1      MOL    H10          1882     0.18693139       1.007941     ; qtot 37.705
  1883     ha         1      MOL    H11          1883     0.20366112       1.007941     ; qtot 37.908
  1884     ha         1      MOL    H12          1884     0.22038259       1.007941     ; qtot 38.129
  1885     ha         1      MOL    H13          1885     0.19973813       1.007941     ; qtot 38.329
  1886     ha         1      MOL    H14          1886     0.19099797       1.007941     ; qtot 38.520
  1887     o          1      MOL    O4           1887     0.22121783      15.999405     ; qtot 38.741
  1888     ha         1      MOL    H15          1888    -0.73915253       1.007941     ; qtot 38.002
  1889     ha         1      MOL    H16          1889     0.20252401       1.007941     ; qtot 38.204
  1890     ha         1      MOL    H17          1890     0.21932308       1.007941     ; qtot 38.424
  1891     ha         1      MOL    H18          1891     0.22608478       1.007941     ; qtot 38.650
  1892     ha         1      MOL    H19          1892     0.21367359       1.007941     ; qtot 38.863
  1893     ha         1      MOL    H20          1893     0.19989100       1.007941     ; qtot 39.063
  1894     ha         1      MOL    H21          1894     0.19836987       1.007941     ; qtot 39.262
  1895     h4         1      MOL    H22          1895     0.21153706       1.007941     ; qtot 39.473
  1896     ha         1      MOL    H23          1896     0.21349288       1.007941     ; qtot 39.687
  1897     f          1      MOL    F12          1897     0.30829781      18.998403     ; qtot 39.995
  1898     c3         1      MOL    C47          1898     0.20429578      12.010736     ; qtot 40.199
  1899     h1         1      MOL    H24          1899    -0.23083548       1.007941     ; qtot 39.968
  1900     h1         1      MOL    H25          1900    -0.40929592       1.007941     ; qtot 39.559
  1901     h1         1      MOL    H26          1901     0.22048164       1.007941     ; qtot 39.780
  1902     hn         1      MOL    H27          1902     0.22048164       1.007941     ; qtot 40.000
 
[ bonds ]
; atom_i  atom_j  functype      r0 (nm)    k (kJ/mol/nm^2)
    1       3         1        0.140150     3.325443E+05     ; N-C, prebuilt c2-na
    1      66         1        0.140150     3.325443E+05     ; N-C, prebuilt c2-na
    1      93         1        0.146290     2.742194E+05     ; N-C, prebuilt c3-na
    2       3         1        0.140150     3.325443E+05     ; N-C, prebuilt c2-na
    2       4         1        0.138400     3.518744E+05     ; N-C, prebuilt ca-na
    2      65         1        0.140150     3.325443E+05     ; N-C, prebuilt c2-na
    3      40         1        0.138460     4.034213E+05     ; C-C, prebuilt c2-ca
    4       5         1        0.139840     3.858485E+05     ; C-C, prebuilt ca-ca
    4       9         1        0.139840     3.858485E+05     ; C-C, prebuilt ca-ca
    5       6         1        0.139840     3.858485E+05     ; C-C, prebuilt ca-ca
    5      71         1        0.108600     2.893654E+05     ; C-H, prebuilt ca-ha
    6       7         1        0.139840     3.858485E+05     ; C-C, prebuilt ca-ca
    6      72         1        0.108600     2.893654E+05     ; C-H, prebuilt ca-ha
    7       8         1        0.139840     3.858485E+05     ; C-C, prebuilt ca-ca
    7      10         1        0.141210     3.214986E+05     ; C-N, prebuilt ca-n
    8       9         1        0.139840     3.858485E+05     ; C-C, prebuilt ca-ca
    8      74         1        0.108600     2.893654E+05     ; C-H, prebuilt ca-ha
    9      73         1        0.108600     2.893654E+05     ; C-H, prebuilt ca-ha
   10      11         1        0.137890     3.578157E+05     ; N-C, prebuilt c-n
   10      14         1        0.137890     3.578157E+05     ; N-C, prebuilt c-n
   11      12         1        0.149060     2.894491E+05     ; C-C, prebuilt c-ca
   11      35         1        0.121830     5.336274E+05     ; C-O, prebuilt c-o
   12      13         1        0.139840     3.858485E+05     ; C-C, prebuilt ca-ca
   12      16         1        0.139840     3.858485E+05     ; C-C, prebuilt ca-ca
   13      14         1        0.149060     2.894491E+05     ; C-C, prebuilt c-ca
   13      19         1        0.139840     3.858485E+05     ; C-C, prebuilt ca-ca
   14      15         1        0.121830     5.336274E+05     ; C-O, prebuilt c-o
   16      17         1        0.139840     3.858485E+05     ; C-C, prebuilt ca-ca
   16      75         1        0.108600     2.893654E+05     ; C-H, prebuilt ca-ha
   17      18         1        0.139840     3.858485E+05     ; C-C, prebuilt ca-ca
   17      26         1        0.151560     2.686128E+05     ; C-C, prebuilt c3-ca
   18      19         1        0.139840     3.858485E+05     ; C-C, prebuilt ca-ca
   18      76         1        0.108600     2.893654E+05     ; C-H, prebuilt ca-ha
   19      77         1        0.108600     2.893654E+05     ; C-H, prebuilt ca-ha
   20      21         1        0.139840     3.858485E+05     ; C-C, prebuilt ca-ca
   20      23         1        0.139840     3.858485E+05     ; C-C, prebuilt ca-ca
   20      26         1        0.151560     2.686128E+05     ; C-C, prebuilt c3-ca
   21      22         1        0.139840     3.858485E+05     ; C-C, prebuilt ca-ca
   21      79         1        0.108600     2.893654E+05     ; C-H, prebuilt ca-ha
   22      24         1        0.139840     3.858485E+05     ; C-C, prebuilt ca-ca
   22      36         1        0.149060     2.894491E+05     ; C-C, prebuilt c-ca
   23      25         1        0.139840     3.858485E+05     ; C-C, prebuilt ca-ca
   23      78         1        0.108600     2.893654E+05     ; C-H, prebuilt ca-ha
   24      25         1        0.139840     3.858485E+05     ; C-C, prebuilt ca-ca
   24      38         1        0.149060     2.894491E+05     ; C-C, prebuilt c-ca
   25      80         1        0.108600     2.893654E+05     ; C-H, prebuilt ca-ha
   26      27         1        0.153750     2.517931E+05     ; C-C, prebuilt c3-c3
   26      31         1        0.153750     2.517931E+05     ; C-C, prebuilt c3-c3
   27      28         1        0.134970     2.986539E+05     ; C-F, prebuilt c3-f
   27      29         1        0.134970     2.986539E+05     ; C-F, prebuilt c3-f
   27      30         1        0.134970     2.986539E+05     ; C-F, prebuilt c3-f
   31      32         1        0.134970     2.986539E+05     ; C-F, prebuilt c3-f
   31      33         1        0.134970     2.986539E+05     ; C-F, prebuilt c3-f
   31      34         1        0.134970     2.986539E+05     ; C-F, prebuilt c3-f
   36      37         1        0.137890     3.578157E+05     ; C-N, prebuilt c-n
   36      81         1        0.121830     5.336274E+05     ; C-O, prebuilt c-o
   37      38         1        0.137890     3.578157E+05     ; N-C, prebuilt c-n
   37     154         1        0.141210     3.214986E+05     ; N-C, prebuilt ca-n
   38      39         1        0.121830     5.336274E+05     ; C-O, prebuilt c-o
   40      41         1        0.139840     3.858485E+05     ; C-C, prebuilt ca-ca
   40      42         1        0.139840     3.858485E+05     ; C-C, prebuilt ca-ca
   41      43         1        0.139840     3.858485E+05     ; C-C, prebuilt ca-ca
   41      82         1        0.108600     2.893654E+05     ; C-H, prebuilt ca-ha
   42      44         1        0.139840     3.858485E+05     ; C-C, prebuilt ca-ca
   42      84         1        0.108600     2.893654E+05     ; C-H, prebuilt ca-ha
   43      45         1        0.139840     3.858485E+05     ; C-C, prebuilt ca-ca
   43      83         1        0.108600     2.893654E+05     ; C-H, prebuilt ca-ha
   44      45         1        0.139840     3.858485E+05     ; C-C, prebuilt ca-ca
   44      91         1        0.108600     2.893654E+05     ; C-H, prebuilt ca-ha
   45      46         1        0.138460     4.034213E+05     ; C-C, prebuilt c2-ca
   46      47         1        0.140150     3.325443E+05     ; C-N, prebuilt c2-na
   46      48         1        0.140150     3.325443E+05     ; C-N, prebuilt c2-na
   47      49         1        0.140150     3.325443E+05     ; N-C, prebuilt c2-na
   47      55         1        0.138400     3.518744E+05     ; N-C, prebuilt ca-na
   48      50         1        0.140150     3.325443E+05     ; N-C, prebuilt c2-na
   48      51         1        0.146290     2.742194E+05     ; N-C, prebuilt c3-na
   49      50         1        0.133430     4.764739E+05     ; C-C, prebuilt c2-c2
   49      90         1        0.108680     2.883613E+05     ; C-H, prebuilt c2-h4
   50      61         1        0.150950     2.734662E+05     ; C-C, prebuilt c2-c3
   51      52         1        0.109690     2.766461E+05     ; C-H, prebuilt c3-h1
   51      53         1        0.109690     2.766461E+05     ; C-H, prebuilt c3-h1
   51      54         1        0.109690     2.766461E+05     ; C-H, prebuilt c3-h1
   55      56         1        0.139840     3.858485E+05     ; C-C, prebuilt ca-ca
   55      60         1        0.139840     3.858485E+05     ; C-C, prebuilt ca-ca
   56      57         1        0.139840     3.858485E+05     ; C-C, prebuilt ca-ca
   56      87         1        0.108600     2.893654E+05     ; C-H, prebuilt ca-ha
   57      58         1        0.139840     3.858485E+05     ; C-C, prebuilt ca-ca
   57      85         1        0.108600     2.893654E+05     ; C-H, prebuilt ca-ha
   58      59         1        0.139840     3.858485E+05     ; C-C, prebuilt ca-ca
   58      86         1        0.108600     2.893654E+05     ; C-H, prebuilt ca-ha
   59      60         1        0.139840     3.858485E+05     ; C-C, prebuilt ca-ca
   59      88         1        0.108600     2.893654E+05     ; C-H, prebuilt ca-ha
   60      89         1        0.108600     2.893654E+05     ; C-H, prebuilt ca-ha
   61      62         1        0.134970     2.986539E+05     ; C-F, prebuilt c3-f
   61      63         1        0.134970     2.986539E+05     ; C-F, prebuilt c3-f
   61      64         1        0.134970     2.986539E+05     ; C-F, prebuilt c3-f
   65      66         1        0.133430     4.764739E+05     ; C-C, prebuilt c2-c2
   65      70         1        0.108680     2.883613E+05     ; C-H, prebuilt c2-h4
   66      67         1        0.150950     2.734662E+05     ; C-C, prebuilt c2-c3
   67      68         1        0.134970     2.986539E+05     ; C-F, prebuilt c3-f
   67      69         1        0.134970     2.986539E+05     ; C-F, prebuilt c3-f
   67      92         1        0.134970     2.986539E+05     ; C-F, prebuilt c3-f
   93      94         1        0.109690     2.766461E+05     ; C-H, prebuilt c3-h1
   93      95         1        0.109690     2.766461E+05     ; C-H, prebuilt c3-h1
   93      96         1        0.109690     2.766461E+05     ; C-H, prebuilt c3-h1
   97      99         1        0.140150     3.325443E+05     ; N-C, prebuilt c2-na
   97     162         1        0.140150     3.325443E+05     ; N-C, prebuilt c2-na
   97     188         1        0.146290     2.742194E+05     ; N-C, prebuilt c3-na
   98      99         1        0.140150     3.325443E+05     ; N-C, prebuilt c2-na
   98     100         1        0.138400     3.518744E+05     ; N-C, prebuilt ca-na
   98     161         1        0.140150     3.325443E+05     ; N-C, prebuilt c2-na
   99     136         1        0.138460     4.034213E+05     ; C-C, prebuilt c2-ca
  100     101         1        0.139840     3.858485E+05     ; C-C, prebuilt ca-ca
  100     105         1        0.139840     3.858485E+05     ; C-C, prebuilt ca-ca
  101     102         1        0.139840     3.858485E+05     ; C-C, prebuilt ca-ca
  101     167         1        0.108600     2.893654E+05     ; C-H, prebuilt ca-ha
  102     103         1        0.139840     3.858485E+05     ; C-C, prebuilt ca-ca
  102     168         1        0.108600     2.893654E+05     ; C-H, prebuilt ca-ha
  103     104         1        0.139840     3.858485E+05     ; C-C, prebuilt ca-ca
  103     106         1        0.141210     3.214986E+05     ; C-N, prebuilt ca-n
  104     105         1        0.139840     3.858485E+05     ; C-C, prebuilt ca-ca
  104     170         1        0.108600     2.893654E+05     ; C-H, prebuilt ca-ha
  105     169         1        0.108600     2.893654E+05     ; C-H, prebuilt ca-ha
  106     107         1        0.137890     3.578157E+05     ; N-C, prebuilt c-n
  106     110         1        0.137890     3.578157E+05     ; N-C, prebuilt c-n
  107     108         1        0.149060     2.894491E+05     ; C-C, prebuilt c-ca
  107     131         1        0.121830     5.336274E+05     ; C-O, prebuilt c-o
  108     109         1        0.139840     3.858485E+05     ; C-C, prebuilt ca-ca
  108     112         1        0.139840     3.858485E+05     ; C-C, prebuilt ca-ca
  109     110         1        0.149060     2.894491E+05     ; C-C, prebuilt c-ca
  109     115         1        0.139840     3.858485E+05     ; C-C, prebuilt ca-ca
  110     111         1        0.121830     5.336274E+05     ; C-O, prebuilt c-o
  112     113         1        0.139840     3.858485E+05     ; C-C, prebuilt ca-ca
  112     171         1        0.108600     2.893654E+05     ; C-H, prebuilt ca-ha
  113     114         1        0.139840     3.858485E+05     ; C-C, prebuilt ca-ca
  113     122         1        0.151560     2.686128E+05     ; C-C, prebuilt c3-ca
  114     115         1        0.139840     3.858485E+05     ; C-C, prebuilt ca-ca
  114     172         1        0.108600     2.893654E+05     ; C-H, prebuilt ca-ha
  115     173         1        0.108600     2.893654E+05     ; C-H, prebuilt ca-ha
  116     117         1        0.139840     3.858485E+05     ; C-C, prebuilt ca-ca
  116     119         1        0.139840     3.858485E+05     ; C-C, prebuilt ca-ca
  116     122         1        0.151560     2.686128E+05     ; C-C, prebuilt c3-ca
  117     118         1        0.139840     3.858485E+05     ; C-C, prebuilt ca-ca
  117     175         1        0.108600     2.893654E+05     ; C-H, prebuilt ca-ha
  118     120         1        0.139840     3.858485E+05     ; C-C, prebuilt ca-ca
  118     132         1        0.149060     2.894491E+05     ; C-C, prebuilt c-ca
  119     121         1        0.139840     3.858485E+05     ; C-C, prebuilt ca-ca
  119     174         1        0.108600     2.893654E+05     ; C-H, prebuilt ca-ha
  120     121         1        0.139840     3.858485E+05     ; C-C, prebuilt ca-ca
  120     134         1        0.149060     2.894491E+05     ; C-C, prebuilt c-ca
  121     176         1        0.108600     2.893654E+05     ; C-H, prebuilt ca-ha
  122     123         1        0.153750     2.517931E+05     ; C-C, prebuilt c3-c3
  122     127         1        0.153750     2.517931E+05     ; C-C, prebuilt c3-c3
  123     124         1        0.134970     2.986539E+05     ; C-F, prebuilt c3-f
  123     125         1        0.134970     2.986539E+05     ; C-F, prebuilt c3-f
  123     126         1        0.134970     2.986539E+05     ; C-F, prebuilt c3-f
  127     128         1        0.134970     2.986539E+05     ; C-F, prebuilt c3-f
  127     129         1        0.134970     2.986539E+05     ; C-F, prebuilt c3-f
  127     130         1        0.134970     2.986539E+05     ; C-F, prebuilt c3-f
  132     133         1        0.137890     3.578157E+05     ; C-N, prebuilt c-n
  132     177         1        0.121830     5.336274E+05     ; C-O, prebuilt c-o
  133     134         1        0.137890     3.578157E+05     ; N-C, prebuilt c-n
  133     249         1        0.141210     3.214986E+05     ; N-C, prebuilt ca-n
  134     135         1        0.121830     5.336274E+05     ; C-O, prebuilt c-o
  136     137         1        0.139840     3.858485E+05     ; C-C, prebuilt ca-ca
  136     138         1        0.139840     3.858485E+05     ; C-C, prebuilt ca-ca
  137     139         1        0.139840     3.858485E+05     ; C-C, prebuilt ca-ca
  137     178         1        0.108600     2.893654E+05     ; C-H, prebuilt ca-ha
  138     140         1        0.139840     3.858485E+05     ; C-C, prebuilt ca-ca
  138     180         1        0.108600     2.893654E+05     ; C-H, prebuilt ca-ha
  139     141         1        0.139840     3.858485E+05     ; C-C, prebuilt ca-ca
  139     179         1        0.108600     2.893654E+05     ; C-H, prebuilt ca-ha
  140     141         1        0.139840     3.858485E+05     ; C-C, prebuilt ca-ca
  140     186         1        0.108600     2.893654E+05     ; C-H, prebuilt ca-ha
  141     142         1        0.138460     4.034213E+05     ; C-C, prebuilt c2-ca
  142     143         1        0.140150     3.325443E+05     ; C-N, prebuilt c2-na
  142     144         1        0.140150     3.325443E+05     ; C-N, prebuilt c2-na
  143     145         1        0.140150     3.325443E+05     ; N-C, prebuilt c2-na
  143     151         1        0.138400     3.518744E+05     ; N-C, prebuilt ca-na
  144     146         1        0.140150     3.325443E+05     ; N-C, prebuilt c2-na
  144     147         1        0.146290     2.742194E+05     ; N-C, prebuilt c3-na
  145     146         1        0.133430     4.764739E+05     ; C-C, prebuilt c2-c2
  145     185         1        0.108680     2.883613E+05     ; C-H, prebuilt c2-h4
  146     157         1        0.150950     2.734662E+05     ; C-C, prebuilt c2-c3
  147     148         1        0.109690     2.766461E+05     ; C-H, prebuilt c3-h1
  147     149         1        0.109690     2.766461E+05     ; C-H, prebuilt c3-h1
  147     150         1        0.109690     2.766461E+05     ; C-H, prebuilt c3-h1
  151     152         1        0.139840     3.858485E+05     ; C-C, prebuilt ca-ca
  151     156         1        0.139840     3.858485E+05     ; C-C, prebuilt ca-ca
  152     153         1        0.139840     3.858485E+05     ; C-C, prebuilt ca-ca
  152     182         1        0.108600     2.893654E+05     ; C-H, prebuilt ca-ha
  153     154         1        0.139840     3.858485E+05     ; C-C, prebuilt ca-ca
  153     181         1        0.108600     2.893654E+05     ; C-H, prebuilt ca-ha
  154     155         1        0.139840     3.858485E+05     ; C-C, prebuilt ca-ca
  155     156         1        0.139840     3.858485E+05     ; C-C, prebuilt ca-ca
  155     183         1        0.108600     2.893654E+05     ; C-H, prebuilt ca-ha
  156     184         1        0.108600     2.893654E+05     ; C-H, prebuilt ca-ha
  157     158         1        0.134970     2.986539E+05     ; C-F, prebuilt c3-f
  157     159         1        0.134970     2.986539E+05     ; C-F, prebuilt c3-f
  157     160         1        0.134970     2.986539E+05     ; C-F, prebuilt c3-f
  161     162         1        0.133430     4.764739E+05     ; C-C, prebuilt c2-c2
  161     166         1        0.108680     2.883613E+05     ; C-H, prebuilt c2-h4
  162     163         1        0.150950     2.734662E+05     ; C-C, prebuilt c2-c3
  163     164         1        0.134970     2.986539E+05     ; C-F, prebuilt c3-f
  163     165         1        0.134970     2.986539E+05     ; C-F, prebuilt c3-f
  163     187         1        0.134970     2.986539E+05     ; C-F, prebuilt c3-f
  188     189         1        0.109690     2.766461E+05     ; C-H, prebuilt c3-h1
  188     190         1        0.109690     2.766461E+05     ; C-H, prebuilt c3-h1
  188     191         1        0.109690     2.766461E+05     ; C-H, prebuilt c3-h1
  192     194         1        0.140150     3.325443E+05     ; N-C, prebuilt c2-na
  192     257         1        0.140150     3.325443E+05     ; N-C, prebuilt c2-na
  192     283         1        0.146290     2.742194E+05     ; N-C, prebuilt c3-na
  193     194         1        0.140150     3.325443E+05     ; N-C, prebuilt c2-na
  193     195         1        0.138400     3.518744E+05     ; N-C, prebuilt ca-na
  193     256         1        0.140150     3.325443E+05     ; N-C, prebuilt c2-na
  194     231         1        0.138460     4.034213E+05     ; C-C, prebuilt c2-ca
  195     196         1        0.139840     3.858485E+05     ; C-C, prebuilt ca-ca
  195     200         1        0.139840     3.858485E+05     ; C-C, prebuilt ca-ca
  196     197         1        0.139840     3.858485E+05     ; C-C, prebuilt ca-ca
  196     262         1        0.108600     2.893654E+05     ; C-H, prebuilt ca-ha
  197     198         1        0.139840     3.858485E+05     ; C-C, prebuilt ca-ca
  197     263         1        0.108600     2.893654E+05     ; C-H, prebuilt ca-ha
  198     199         1        0.139840     3.858485E+05     ; C-C, prebuilt ca-ca
  198     201         1        0.141210     3.214986E+05     ; C-N, prebuilt ca-n
  199     200         1        0.139840     3.858485E+05     ; C-C, prebuilt ca-ca
  199     265         1        0.108600     2.893654E+05     ; C-H, prebuilt ca-ha
  200     264         1        0.108600     2.893654E+05     ; C-H, prebuilt ca-ha
  201     202         1        0.137890     3.578157E+05     ; N-C, prebuilt c-n
  201     205         1        0.137890     3.578157E+05     ; N-C, prebuilt c-n
  202     203         1        0.149060     2.894491E+05     ; C-C, prebuilt c-ca
  202     226         1        0.121830     5.336274E+05     ; C-O, prebuilt c-o
  203     204         1        0.139840     3.858485E+05     ; C-C, prebuilt ca-ca
  203     207         1        0.139840     3.858485E+05     ; C-C, prebuilt ca-ca
  204     205         1        0.149060     2.894491E+05     ; C-C, prebuilt c-ca
  204     210         1        0.139840     3.858485E+05     ; C-C, prebuilt ca-ca
  205     206         1        0.121830     5.336274E+05     ; C-O, prebuilt c-o
  207     208         1        0.139840     3.858485E+05     ; C-C, prebuilt ca-ca
  207     266         1        0.108600     2.893654E+05     ; C-H, prebuilt ca-ha
  208     209         1        0.139840     3.858485E+05     ; C-C, prebuilt ca-ca
  208     217         1        0.151560     2.686128E+05     ; C-C, prebuilt c3-ca
  209     210         1        0.139840     3.858485E+05     ; C-C, prebuilt ca-ca
  209     267         1        0.108600     2.893654E+05     ; C-H, prebuilt ca-ha
  210     268         1        0.108600     2.893654E+05     ; C-H, prebuilt ca-ha
  211     212         1        0.139840     3.858485E+05     ; C-C, prebuilt ca-ca
  211     214         1        0.139840     3.858485E+05     ; C-C, prebuilt ca-ca
  211     217         1        0.151560     2.686128E+05     ; C-C, prebuilt c3-ca
  212     213         1        0.139840     3.858485E+05     ; C-C, prebuilt ca-ca
  212     270         1        0.108600     2.893654E+05     ; C-H, prebuilt ca-ha
  213     215         1        0.139840     3.858485E+05     ; C-C, prebuilt ca-ca
  213     227         1        0.149060     2.894491E+05     ; C-C, prebuilt c-ca
  214     216         1        0.139840     3.858485E+05     ; C-C, prebuilt ca-ca
  214     269         1        0.108600     2.893654E+05     ; C-H, prebuilt ca-ha
  215     216         1        0.139840     3.858485E+05     ; C-C, prebuilt ca-ca
  215     229         1        0.149060     2.894491E+05     ; C-C, prebuilt c-ca
  216     271         1        0.108600     2.893654E+05     ; C-H, prebuilt ca-ha
  217     218         1        0.153750     2.517931E+05     ; C-C, prebuilt c3-c3
  217     222         1        0.153750     2.517931E+05     ; C-C, prebuilt c3-c3
  218     219         1        0.134970     2.986539E+05     ; C-F, prebuilt c3-f
  218     220         1        0.134970     2.986539E+05     ; C-F, prebuilt c3-f
  218     221         1        0.134970     2.986539E+05     ; C-F, prebuilt c3-f
  222     223         1        0.134970     2.986539E+05     ; C-F, prebuilt c3-f
  222     224         1        0.134970     2.986539E+05     ; C-F, prebuilt c3-f
  222     225         1        0.134970     2.986539E+05     ; C-F, prebuilt c3-f
  227     228         1        0.137890     3.578157E+05     ; C-N, prebuilt c-n
  227     272         1        0.121830     5.336274E+05     ; C-O, prebuilt c-o
  228     229         1        0.137890     3.578157E+05     ; N-C, prebuilt c-n
  228     344         1        0.141210     3.214986E+05     ; N-C, prebuilt ca-n
  229     230         1        0.121830     5.336274E+05     ; C-O, prebuilt c-o
  231     232         1        0.139840     3.858485E+05     ; C-C, prebuilt ca-ca
  231     233         1        0.139840     3.858485E+05     ; C-C, prebuilt ca-ca
  232     234         1        0.139840     3.858485E+05     ; C-C, prebuilt ca-ca
  232     273         1        0.108600     2.893654E+05     ; C-H, prebuilt ca-ha
  233     235         1        0.139840     3.858485E+05     ; C-C, prebuilt ca-ca
  233     275         1        0.108600     2.893654E+05     ; C-H, prebuilt ca-ha
  234     236         1        0.139840     3.858485E+05     ; C-C, prebuilt ca-ca
  234     274         1        0.108600     2.893654E+05     ; C-H, prebuilt ca-ha
  235     236         1        0.139840     3.858485E+05     ; C-C, prebuilt ca-ca
  235     281         1        0.108600     2.893654E+05     ; C-H, prebuilt ca-ha
  236     237         1        0.138460     4.034213E+05     ; C-C, prebuilt c2-ca
  237     238         1        0.140150     3.325443E+05     ; C-N, prebuilt c2-na
  237     239         1        0.140150     3.325443E+05     ; C-N, prebuilt c2-na
  238     240         1        0.140150     3.325443E+05     ; N-C, prebuilt c2-na
  238     246         1        0.138400     3.518744E+05     ; N-C, prebuilt ca-na
  239     241         1        0.140150     3.325443E+05     ; N-C, prebuilt c2-na
  239     242         1        0.146290     2.742194E+05     ; N-C, prebuilt c3-na
  240     241         1        0.133430     4.764739E+05     ; C-C, prebuilt c2-c2
  240     280         1        0.108680     2.883613E+05     ; C-H, prebuilt c2-h4
  241     252         1        0.150950     2.734662E+05     ; C-C, prebuilt c2-c3
  242     243         1        0.109690     2.766461E+05     ; C-H, prebuilt c3-h1
  242     244         1        0.109690     2.766461E+05     ; C-H, prebuilt c3-h1
  242     245         1        0.109690     2.766461E+05     ; C-H, prebuilt c3-h1
  246     247         1        0.139840     3.858485E+05     ; C-C, prebuilt ca-ca
  246     251         1        0.139840     3.858485E+05     ; C-C, prebuilt ca-ca
  247     248         1        0.139840     3.858485E+05     ; C-C, prebuilt ca-ca
  247     277         1        0.108600     2.893654E+05     ; C-H, prebuilt ca-ha
  248     249         1        0.139840     3.858485E+05     ; C-C, prebuilt ca-ca
  248     276         1        0.108600     2.893654E+05     ; C-H, prebuilt ca-ha
  249     250         1        0.139840     3.858485E+05     ; C-C, prebuilt ca-ca
  250     251         1        0.139840     3.858485E+05     ; C-C, prebuilt ca-ca
  250     278         1        0.108600     2.893654E+05     ; C-H, prebuilt ca-ha
  251     279         1        0.108600     2.893654E+05     ; C-H, prebuilt ca-ha
  252     253         1        0.134970     2.986539E+05     ; C-F, prebuilt c3-f
  252     254         1        0.134970     2.986539E+05     ; C-F, prebuilt c3-f
  252     255         1        0.134970     2.986539E+05     ; C-F, prebuilt c3-f
  256     257         1        0.133430     4.764739E+05     ; C-C, prebuilt c2-c2
  256     261         1        0.108680     2.883613E+05     ; C-H, prebuilt c2-h4
  257     258         1        0.150950     2.734662E+05     ; C-C, prebuilt c2-c3
  258     259         1        0.134970     2.986539E+05     ; C-F, prebuilt c3-f
  258     260         1        0.134970     2.986539E+05     ; C-F, prebuilt c3-f
  258     282         1        0.134970     2.986539E+05     ; C-F, prebuilt c3-f
  283     284         1        0.109690     2.766461E+05     ; C-H, prebuilt c3-h1
  283     285         1        0.109690     2.766461E+05     ; C-H, prebuilt c3-h1
  283     286         1        0.109690     2.766461E+05     ; C-H, prebuilt c3-h1
  287     289         1        0.140150     3.325443E+05     ; N-C, prebuilt c2-na
  287     352         1        0.140150     3.325443E+05     ; N-C, prebuilt c2-na
  287     378         1        0.146290     2.742194E+05     ; N-C, prebuilt c3-na
  288     289         1        0.140150     3.325443E+05     ; N-C, prebuilt c2-na
  288     290         1        0.138400     3.518744E+05     ; N-C, prebuilt ca-na
  288     351         1        0.140150     3.325443E+05     ; N-C, prebuilt c2-na
  289     326         1        0.138460     4.034213E+05     ; C-C, prebuilt c2-ca
  290     291         1        0.139840     3.858485E+05     ; C-C, prebuilt ca-ca
  290     295         1        0.139840     3.858485E+05     ; C-C, prebuilt ca-ca
  291     292         1        0.139840     3.858485E+05     ; C-C, prebuilt ca-ca
  291     357         1        0.108600     2.893654E+05     ; C-H, prebuilt ca-ha
  292     293         1        0.139840     3.858485E+05     ; C-C, prebuilt ca-ca
  292     358         1        0.108600     2.893654E+05     ; C-H, prebuilt ca-ha
  293     294         1        0.139840     3.858485E+05     ; C-C, prebuilt ca-ca
  293     296         1        0.141210     3.214986E+05     ; C-N, prebuilt ca-n
  294     295         1        0.139840     3.858485E+05     ; C-C, prebuilt ca-ca
  294     360         1        0.108600     2.893654E+05     ; C-H, prebuilt ca-ha
  295     359         1        0.108600     2.893654E+05     ; C-H, prebuilt ca-ha
  296     297         1        0.137890     3.578157E+05     ; N-C, prebuilt c-n
  296     300         1        0.137890     3.578157E+05     ; N-C, prebuilt c-n
  297     298         1        0.149060     2.894491E+05     ; C-C, prebuilt c-ca
  297     321         1        0.121830     5.336274E+05     ; C-O, prebuilt c-o
  298     299         1        0.139840     3.858485E+05     ; C-C, prebuilt ca-ca
  298     302         1        0.139840     3.858485E+05     ; C-C, prebuilt ca-ca
  299     300         1        0.149060     2.894491E+05     ; C-C, prebuilt c-ca
  299     305         1        0.139840     3.858485E+05     ; C-C, prebuilt ca-ca
  300     301         1        0.121830     5.336274E+05     ; C-O, prebuilt c-o
  302     303         1        0.139840     3.858485E+05     ; C-C, prebuilt ca-ca
  302     361         1        0.108600     2.893654E+05     ; C-H, prebuilt ca-ha
  303     304         1        0.139840     3.858485E+05     ; C-C, prebuilt ca-ca
  303     312         1        0.151560     2.686128E+05     ; C-C, prebuilt c3-ca
  304     305         1        0.139840     3.858485E+05     ; C-C, prebuilt ca-ca
  304     362         1        0.108600     2.893654E+05     ; C-H, prebuilt ca-ha
  305     363         1        0.108600     2.893654E+05     ; C-H, prebuilt ca-ha
  306     307         1        0.139840     3.858485E+05     ; C-C, prebuilt ca-ca
  306     309         1        0.139840     3.858485E+05     ; C-C, prebuilt ca-ca
  306     312         1        0.151560     2.686128E+05     ; C-C, prebuilt c3-ca
  307     308         1        0.139840     3.858485E+05     ; C-C, prebuilt ca-ca
  307     365         1        0.108600     2.893654E+05     ; C-H, prebuilt ca-ha
  308     310         1        0.139840     3.858485E+05     ; C-C, prebuilt ca-ca
  308     322         1        0.149060     2.894491E+05     ; C-C, prebuilt c-ca
  309     311         1        0.139840     3.858485E+05     ; C-C, prebuilt ca-ca
  309     364         1        0.108600     2.893654E+05     ; C-H, prebuilt ca-ha
  310     311         1        0.139840     3.858485E+05     ; C-C, prebuilt ca-ca
  310     324         1        0.149060     2.894491E+05     ; C-C, prebuilt c-ca
  311     366         1        0.108600     2.893654E+05     ; C-H, prebuilt ca-ha
  312     313         1        0.153750     2.517931E+05     ; C-C, prebuilt c3-c3
  312     317         1        0.153750     2.517931E+05     ; C-C, prebuilt c3-c3
  313     314         1        0.134970     2.986539E+05     ; C-F, prebuilt c3-f
  313     315         1        0.134970     2.986539E+05     ; C-F, prebuilt c3-f
  313     316         1        0.134970     2.986539E+05     ; C-F, prebuilt c3-f
  317     318         1        0.134970     2.986539E+05     ; C-F, prebuilt c3-f
  317     319         1        0.134970     2.986539E+05     ; C-F, prebuilt c3-f
  317     320         1        0.134970     2.986539E+05     ; C-F, prebuilt c3-f
  322     323         1        0.137890     3.578157E+05     ; C-N, prebuilt c-n
  322     367         1        0.121830     5.336274E+05     ; C-O, prebuilt c-o
  323     324         1        0.137890     3.578157E+05     ; N-C, prebuilt c-n
  323     439         1        0.141210     3.214986E+05     ; N-C, prebuilt ca-n
  324     325         1        0.121830     5.336274E+05     ; C-O, prebuilt c-o
  326     327         1        0.139840     3.858485E+05     ; C-C, prebuilt ca-ca
  326     328         1        0.139840     3.858485E+05     ; C-C, prebuilt ca-ca
  327     329         1        0.139840     3.858485E+05     ; C-C, prebuilt ca-ca
  327     368         1        0.108600     2.893654E+05     ; C-H, prebuilt ca-ha
  328     330         1        0.139840     3.858485E+05     ; C-C, prebuilt ca-ca
  328     370         1        0.108600     2.893654E+05     ; C-H, prebuilt ca-ha
  329     331         1        0.139840     3.858485E+05     ; C-C, prebuilt ca-ca
  329     369         1        0.108600     2.893654E+05     ; C-H, prebuilt ca-ha
  330     331         1        0.139840     3.858485E+05     ; C-C, prebuilt ca-ca
  330     376         1        0.108600     2.893654E+05     ; C-H, prebuilt ca-ha
  331     332         1        0.138460     4.034213E+05     ; C-C, prebuilt c2-ca
  332     333         1        0.140150     3.325443E+05     ; C-N, prebuilt c2-na
  332     334         1        0.140150     3.325443E+05     ; C-N, prebuilt c2-na
  333     335         1        0.140150     3.325443E+05     ; N-C, prebuilt c2-na
  333     341         1        0.138400     3.518744E+05     ; N-C, prebuilt ca-na
  334     336         1        0.140150     3.325443E+05     ; N-C, prebuilt c2-na
  334     337         1        0.146290     2.742194E+05     ; N-C, prebuilt c3-na
  335     336         1        0.133430     4.764739E+05     ; C-C, prebuilt c2-c2
  335     375         1        0.108680     2.883613E+05     ; C-H, prebuilt c2-h4
  336     347         1        0.150950     2.734662E+05     ; C-C, prebuilt c2-c3
  337     338         1        0.109690     2.766461E+05     ; C-H, prebuilt c3-h1
  337     339         1        0.109690     2.766461E+05     ; C-H, prebuilt c3-h1
  337     340         1        0.109690     2.766461E+05     ; C-H, prebuilt c3-h1
  341     342         1        0.139840     3.858485E+05     ; C-C, prebuilt ca-ca
  341     346         1        0.139840     3.858485E+05     ; C-C, prebuilt ca-ca
  342     343         1        0.139840     3.858485E+05     ; C-C, prebuilt ca-ca
  342     372         1        0.108600     2.893654E+05     ; C-H, prebuilt ca-ha
  343     344         1        0.139840     3.858485E+05     ; C-C, prebuilt ca-ca
  343     371         1        0.108600     2.893654E+05     ; C-H, prebuilt ca-ha
  344     345         1        0.139840     3.858485E+05     ; C-C, prebuilt ca-ca
  345     346         1        0.139840     3.858485E+05     ; C-C, prebuilt ca-ca
  345     373         1        0.108600     2.893654E+05     ; C-H, prebuilt ca-ha
  346     374         1        0.108600     2.893654E+05     ; C-H, prebuilt ca-ha
  347     348         1        0.134970     2.986539E+05     ; C-F, prebuilt c3-f
  347     349         1        0.134970     2.986539E+05     ; C-F, prebuilt c3-f
  347     350         1        0.134970     2.986539E+05     ; C-F, prebuilt c3-f
  351     352         1        0.133430     4.764739E+05     ; C-C, prebuilt c2-c2
  351     356         1        0.108680     2.883613E+05     ; C-H, prebuilt c2-h4
  352     353         1        0.150950     2.734662E+05     ; C-C, prebuilt c2-c3
  353     354         1        0.134970     2.986539E+05     ; C-F, prebuilt c3-f
  353     355         1        0.134970     2.986539E+05     ; C-F, prebuilt c3-f
  353     377         1        0.134970     2.986539E+05     ; C-F, prebuilt c3-f
  378     379         1        0.109690     2.766461E+05     ; C-H, prebuilt c3-h1
  378     380         1        0.109690     2.766461E+05     ; C-H, prebuilt c3-h1
  378     381         1        0.109690     2.766461E+05     ; C-H, prebuilt c3-h1
  382     384         1        0.140150     3.325443E+05     ; N-C, prebuilt c2-na
  382     447         1        0.140150     3.325443E+05     ; N-C, prebuilt c2-na
  382     473         1        0.146290     2.742194E+05     ; N-C, prebuilt c3-na
  383     384         1        0.140150     3.325443E+05     ; N-C, prebuilt c2-na
  383     385         1        0.138400     3.518744E+05     ; N-C, prebuilt ca-na
  383     446         1        0.140150     3.325443E+05     ; N-C, prebuilt c2-na
  384     421         1        0.138460     4.034213E+05     ; C-C, prebuilt c2-ca
  385     386         1        0.139840     3.858485E+05     ; C-C, prebuilt ca-ca
  385     390         1        0.139840     3.858485E+05     ; C-C, prebuilt ca-ca
  386     387         1        0.139840     3.858485E+05     ; C-C, prebuilt ca-ca
  386     452         1        0.108600     2.893654E+05     ; C-H, prebuilt ca-ha
  387     388         1        0.139840     3.858485E+05     ; C-C, prebuilt ca-ca
  387     453         1        0.108600     2.893654E+05     ; C-H, prebuilt ca-ha
  388     389         1        0.139840     3.858485E+05     ; C-C, prebuilt ca-ca
  388     391         1        0.141210     3.214986E+05     ; C-N, prebuilt ca-n
  389     390         1        0.139840     3.858485E+05     ; C-C, prebuilt ca-ca
  389     455         1        0.108600     2.893654E+05     ; C-H, prebuilt ca-ha
  390     454         1        0.108600     2.893654E+05     ; C-H, prebuilt ca-ha
  391     392         1        0.137890     3.578157E+05     ; N-C, prebuilt c-n
  391     395         1        0.137890     3.578157E+05     ; N-C, prebuilt c-n
  392     393         1        0.149060     2.894491E+05     ; C-C, prebuilt c-ca
  392     416         1        0.121830     5.336274E+05     ; C-O, prebuilt c-o
  393     394         1        0.139840     3.858485E+05     ; C-C, prebuilt ca-ca
  393     397         1        0.139840     3.858485E+05     ; C-C, prebuilt ca-ca
  394     395         1        0.149060     2.894491E+05     ; C-C, prebuilt c-ca
  394     400         1        0.139840     3.858485E+05     ; C-C, prebuilt ca-ca
  395     396         1        0.121830     5.336274E+05     ; C-O, prebuilt c-o
  397     398         1        0.139840     3.858485E+05     ; C-C, prebuilt ca-ca
  397     456         1        0.108600     2.893654E+05     ; C-H, prebuilt ca-ha
  398     399         1        0.139840     3.858485E+05     ; C-C, prebuilt ca-ca
  398     407         1        0.151560     2.686128E+05     ; C-C, prebuilt c3-ca
  399     400         1        0.139840     3.858485E+05     ; C-C, prebuilt ca-ca
  399     457         1        0.108600     2.893654E+05     ; C-H, prebuilt ca-ha
  400     458         1        0.108600     2.893654E+05     ; C-H, prebuilt ca-ha
  401     402         1        0.139840     3.858485E+05     ; C-C, prebuilt ca-ca
  401     404         1        0.139840     3.858485E+05     ; C-C, prebuilt ca-ca
  401     407         1        0.151560     2.686128E+05     ; C-C, prebuilt c3-ca
  402     403         1        0.139840     3.858485E+05     ; C-C, prebuilt ca-ca
  402     460         1        0.108600     2.893654E+05     ; C-H, prebuilt ca-ha
  403     405         1        0.139840     3.858485E+05     ; C-C, prebuilt ca-ca
  403     417         1        0.149060     2.894491E+05     ; C-C, prebuilt c-ca
  404     406         1        0.139840     3.858485E+05     ; C-C, prebuilt ca-ca
  404     459         1        0.108600     2.893654E+05     ; C-H, prebuilt ca-ha
  405     406         1        0.139840     3.858485E+05     ; C-C, prebuilt ca-ca
  405     419         1        0.149060     2.894491E+05     ; C-C, prebuilt c-ca
  406     461         1        0.108600     2.893654E+05     ; C-H, prebuilt ca-ha
  407     408         1        0.153750     2.517931E+05     ; C-C, prebuilt c3-c3
  407     412         1        0.153750     2.517931E+05     ; C-C, prebuilt c3-c3
  408     409         1        0.134970     2.986539E+05     ; C-F, prebuilt c3-f
  408     410         1        0.134970     2.986539E+05     ; C-F, prebuilt c3-f
  408     411         1        0.134970     2.986539E+05     ; C-F, prebuilt c3-f
  412     413         1        0.134970     2.986539E+05     ; C-F, prebuilt c3-f
  412     414         1        0.134970     2.986539E+05     ; C-F, prebuilt c3-f
  412     415         1        0.134970     2.986539E+05     ; C-F, prebuilt c3-f
  417     418         1        0.137890     3.578157E+05     ; C-N, prebuilt c-n
  417     462         1        0.121830     5.336274E+05     ; C-O, prebuilt c-o
  418     419         1        0.137890     3.578157E+05     ; N-C, prebuilt c-n
  418     534         1        0.141210     3.214986E+05     ; N-C, prebuilt ca-n
  419     420         1        0.121830     5.336274E+05     ; C-O, prebuilt c-o
  421     422         1        0.139840     3.858485E+05     ; C-C, prebuilt ca-ca
  421     423         1        0.139840     3.858485E+05     ; C-C, prebuilt ca-ca
  422     424         1        0.139840     3.858485E+05     ; C-C, prebuilt ca-ca
  422     463         1        0.108600     2.893654E+05     ; C-H, prebuilt ca-ha
  423     425         1        0.139840     3.858485E+05     ; C-C, prebuilt ca-ca
  423     465         1        0.108600     2.893654E+05     ; C-H, prebuilt ca-ha
  424     426         1        0.139840     3.858485E+05     ; C-C, prebuilt ca-ca
  424     464         1        0.108600     2.893654E+05     ; C-H, prebuilt ca-ha
  425     426         1        0.139840     3.858485E+05     ; C-C, prebuilt ca-ca
  425     471         1        0.108600     2.893654E+05     ; C-H, prebuilt ca-ha
  426     427         1        0.138460     4.034213E+05     ; C-C, prebuilt c2-ca
  427     428         1        0.140150     3.325443E+05     ; C-N, prebuilt c2-na
  427     429         1        0.140150     3.325443E+05     ; C-N, prebuilt c2-na
  428     430         1        0.140150     3.325443E+05     ; N-C, prebuilt c2-na
  428     436         1        0.138400     3.518744E+05     ; N-C, prebuilt ca-na
  429     431         1        0.140150     3.325443E+05     ; N-C, prebuilt c2-na
  429     432         1        0.146290     2.742194E+05     ; N-C, prebuilt c3-na
  430     431         1        0.133430     4.764739E+05     ; C-C, prebuilt c2-c2
  430     470         1        0.108680     2.883613E+05     ; C-H, prebuilt c2-h4
  431     442         1        0.150950     2.734662E+05     ; C-C, prebuilt c2-c3
  432     433         1        0.109690     2.766461E+05     ; C-H, prebuilt c3-h1
  432     434         1        0.109690     2.766461E+05     ; C-H, prebuilt c3-h1
  432     435         1        0.109690     2.766461E+05     ; C-H, prebuilt c3-h1
  436     437         1        0.139840     3.858485E+05     ; C-C, prebuilt ca-ca
  436     441         1        0.139840     3.858485E+05     ; C-C, prebuilt ca-ca
  437     438         1        0.139840     3.858485E+05     ; C-C, prebuilt ca-ca
  437     467         1        0.108600     2.893654E+05     ; C-H, prebuilt ca-ha
  438     439         1        0.139840     3.858485E+05     ; C-C, prebuilt ca-ca
  438     466         1        0.108600     2.893654E+05     ; C-H, prebuilt ca-ha
  439     440         1        0.139840     3.858485E+05     ; C-C, prebuilt ca-ca
  440     441         1        0.139840     3.858485E+05     ; C-C, prebuilt ca-ca
  440     468         1        0.108600     2.893654E+05     ; C-H, prebuilt ca-ha
  441     469         1        0.108600     2.893654E+05     ; C-H, prebuilt ca-ha
  442     443         1        0.134970     2.986539E+05     ; C-F, prebuilt c3-f
  442     444         1        0.134970     2.986539E+05     ; C-F, prebuilt c3-f
  442     445         1        0.134970     2.986539E+05     ; C-F, prebuilt c3-f
  446     447         1        0.133430     4.764739E+05     ; C-C, prebuilt c2-c2
  446     451         1        0.108680     2.883613E+05     ; C-H, prebuilt c2-h4
  447     448         1        0.150950     2.734662E+05     ; C-C, prebuilt c2-c3
  448     449         1        0.134970     2.986539E+05     ; C-F, prebuilt c3-f
  448     450         1        0.134970     2.986539E+05     ; C-F, prebuilt c3-f
  448     472         1        0.134970     2.986539E+05     ; C-F, prebuilt c3-f
  473     474         1        0.109690     2.766461E+05     ; C-H, prebuilt c3-h1
  473     475         1        0.109690     2.766461E+05     ; C-H, prebuilt c3-h1
  473     476         1        0.109690     2.766461E+05     ; C-H, prebuilt c3-h1
  477     479         1        0.140150     3.325443E+05     ; N-C, prebuilt c2-na
  477     542         1        0.140150     3.325443E+05     ; N-C, prebuilt c2-na
  477     568         1        0.146290     2.742194E+05     ; N-C, prebuilt c3-na
  478     479         1        0.140150     3.325443E+05     ; N-C, prebuilt c2-na
  478     480         1        0.138400     3.518744E+05     ; N-C, prebuilt ca-na
  478     541         1        0.140150     3.325443E+05     ; N-C, prebuilt c2-na
  479     516         1        0.138460     4.034213E+05     ; C-C, prebuilt c2-ca
  480     481         1        0.139840     3.858485E+05     ; C-C, prebuilt ca-ca
  480     485         1        0.139840     3.858485E+05     ; C-C, prebuilt ca-ca
  481     482         1        0.139840     3.858485E+05     ; C-C, prebuilt ca-ca
  481     547         1        0.108600     2.893654E+05     ; C-H, prebuilt ca-ha
  482     483         1        0.139840     3.858485E+05     ; C-C, prebuilt ca-ca
  482     548         1        0.108600     2.893654E+05     ; C-H, prebuilt ca-ha
  483     484         1        0.139840     3.858485E+05     ; C-C, prebuilt ca-ca
  483     486         1        0.141210     3.214986E+05     ; C-N, prebuilt ca-n
  484     485         1        0.139840     3.858485E+05     ; C-C, prebuilt ca-ca
  484     550         1        0.108600     2.893654E+05     ; C-H, prebuilt ca-ha
  485     549         1        0.108600     2.893654E+05     ; C-H, prebuilt ca-ha
  486     487         1        0.137890     3.578157E+05     ; N-C, prebuilt c-n
  486     490         1        0.137890     3.578157E+05     ; N-C, prebuilt c-n
  487     488         1        0.149060     2.894491E+05     ; C-C, prebuilt c-ca
  487     511         1        0.121830     5.336274E+05     ; C-O, prebuilt c-o
  488     489         1        0.139840     3.858485E+05     ; C-C, prebuilt ca-ca
  488     492         1        0.139840     3.858485E+05     ; C-C, prebuilt ca-ca
  489     490         1        0.149060     2.894491E+05     ; C-C, prebuilt c-ca
  489     495         1        0.139840     3.858485E+05     ; C-C, prebuilt ca-ca
  490     491         1        0.121830     5.336274E+05     ; C-O, prebuilt c-o
  492     493         1        0.139840     3.858485E+05     ; C-C, prebuilt ca-ca
  492     551         1        0.108600     2.893654E+05     ; C-H, prebuilt ca-ha
  493     494         1        0.139840     3.858485E+05     ; C-C, prebuilt ca-ca
  493     502         1        0.151560     2.686128E+05     ; C-C, prebuilt c3-ca
  494     495         1        0.139840     3.858485E+05     ; C-C, prebuilt ca-ca
  494     552         1        0.108600     2.893654E+05     ; C-H, prebuilt ca-ha
  495     553         1        0.108600     2.893654E+05     ; C-H, prebuilt ca-ha
  496     497         1        0.139840     3.858485E+05     ; C-C, prebuilt ca-ca
  496     499         1        0.139840     3.858485E+05     ; C-C, prebuilt ca-ca
  496     502         1        0.151560     2.686128E+05     ; C-C, prebuilt c3-ca
  497     498         1        0.139840     3.858485E+05     ; C-C, prebuilt ca-ca
  497     555         1        0.108600     2.893654E+05     ; C-H, prebuilt ca-ha
  498     500         1        0.139840     3.858485E+05     ; C-C, prebuilt ca-ca
  498     512         1        0.149060     2.894491E+05     ; C-C, prebuilt c-ca
  499     501         1        0.139840     3.858485E+05     ; C-C, prebuilt ca-ca
  499     554         1        0.108600     2.893654E+05     ; C-H, prebuilt ca-ha
  500     501         1        0.139840     3.858485E+05     ; C-C, prebuilt ca-ca
  500     514         1        0.149060     2.894491E+05     ; C-C, prebuilt c-ca
  501     556         1        0.108600     2.893654E+05     ; C-H, prebuilt ca-ha
  502     503         1        0.153750     2.517931E+05     ; C-C, prebuilt c3-c3
  502     507         1        0.153750     2.517931E+05     ; C-C, prebuilt c3-c3
  503     504         1        0.134970     2.986539E+05     ; C-F, prebuilt c3-f
  503     505         1        0.134970     2.986539E+05     ; C-F, prebuilt c3-f
  503     506         1        0.134970     2.986539E+05     ; C-F, prebuilt c3-f
  507     508         1        0.134970     2.986539E+05     ; C-F, prebuilt c3-f
  507     509         1        0.134970     2.986539E+05     ; C-F, prebuilt c3-f
  507     510         1        0.134970     2.986539E+05     ; C-F, prebuilt c3-f
  512     513         1        0.137890     3.578157E+05     ; C-N, prebuilt c-n
  512     557         1        0.121830     5.336274E+05     ; C-O, prebuilt c-o
  513     514         1        0.137890     3.578157E+05     ; N-C, prebuilt c-n
  513     629         1        0.141210     3.214986E+05     ; N-C, prebuilt ca-n
  514     515         1        0.121830     5.336274E+05     ; C-O, prebuilt c-o
  516     517         1        0.139840     3.858485E+05     ; C-C, prebuilt ca-ca
  516     518         1        0.139840     3.858485E+05     ; C-C, prebuilt ca-ca
  517     519         1        0.139840     3.858485E+05     ; C-C, prebuilt ca-ca
  517     558         1        0.108600     2.893654E+05     ; C-H, prebuilt ca-ha
  518     520         1        0.139840     3.858485E+05     ; C-C, prebuilt ca-ca
  518     560         1        0.108600     2.893654E+05     ; C-H, prebuilt ca-ha
  519     521         1        0.139840     3.858485E+05     ; C-C, prebuilt ca-ca
  519     559         1        0.108600     2.893654E+05     ; C-H, prebuilt ca-ha
  520     521         1        0.139840     3.858485E+05     ; C-C, prebuilt ca-ca
  520     566         1        0.108600     2.893654E+05     ; C-H, prebuilt ca-ha
  521     522         1        0.138460     4.034213E+05     ; C-C, prebuilt c2-ca
  522     523         1        0.140150     3.325443E+05     ; C-N, prebuilt c2-na
  522     524         1        0.140150     3.325443E+05     ; C-N, prebuilt c2-na
  523     525         1        0.140150     3.325443E+05     ; N-C, prebuilt c2-na
  523     531         1        0.138400     3.518744E+05     ; N-C, prebuilt ca-na
  524     526         1        0.140150     3.325443E+05     ; N-C, prebuilt c2-na
  524     527         1        0.146290     2.742194E+05     ; N-C, prebuilt c3-na
  525     526         1        0.133430     4.764739E+05     ; C-C, prebuilt c2-c2
  525     565         1        0.108680     2.883613E+05     ; C-H, prebuilt c2-h4
  526     537         1        0.150950     2.734662E+05     ; C-C, prebuilt c2-c3
  527     528         1        0.109690     2.766461E+05     ; C-H, prebuilt c3-h1
  527     529         1        0.109690     2.766461E+05     ; C-H, prebuilt c3-h1
  527     530         1        0.109690     2.766461E+05     ; C-H, prebuilt c3-h1
  531     532         1        0.139840     3.858485E+05     ; C-C, prebuilt ca-ca
  531     536         1        0.139840     3.858485E+05     ; C-C, prebuilt ca-ca
  532     533         1        0.139840     3.858485E+05     ; C-C, prebuilt ca-ca
  532     562         1        0.108600     2.893654E+05     ; C-H, prebuilt ca-ha
  533     534         1        0.139840     3.858485E+05     ; C-C, prebuilt ca-ca
  533     561         1        0.108600     2.893654E+05     ; C-H, prebuilt ca-ha
  534     535         1        0.139840     3.858485E+05     ; C-C, prebuilt ca-ca
  535     536         1        0.139840     3.858485E+05     ; C-C, prebuilt ca-ca
  535     563         1        0.108600     2.893654E+05     ; C-H, prebuilt ca-ha
  536     564         1        0.108600     2.893654E+05     ; C-H, prebuilt ca-ha
  537     538         1        0.134970     2.986539E+05     ; C-F, prebuilt c3-f
  537     539         1        0.134970     2.986539E+05     ; C-F, prebuilt c3-f
  537     540         1        0.134970     2.986539E+05     ; C-F, prebuilt c3-f
  541     542         1        0.133430     4.764739E+05     ; C-C, prebuilt c2-c2
  541     546         1        0.108680     2.883613E+05     ; C-H, prebuilt c2-h4
  542     543         1        0.150950     2.734662E+05     ; C-C, prebuilt c2-c3
  543     544         1        0.134970     2.986539E+05     ; C-F, prebuilt c3-f
  543     545         1        0.134970     2.986539E+05     ; C-F, prebuilt c3-f
  543     567         1        0.134970     2.986539E+05     ; C-F, prebuilt c3-f
  568     569         1        0.109690     2.766461E+05     ; C-H, prebuilt c3-h1
  568     570         1        0.109690     2.766461E+05     ; C-H, prebuilt c3-h1
  568     571         1        0.109690     2.766461E+05     ; C-H, prebuilt c3-h1
  572     574         1        0.140150     3.325443E+05     ; N-C, prebuilt c2-na
  572     637         1        0.140150     3.325443E+05     ; N-C, prebuilt c2-na
  572     663         1        0.146290     2.742194E+05     ; N-C, prebuilt c3-na
  573     574         1        0.140150     3.325443E+05     ; N-C, prebuilt c2-na
  573     575         1        0.138400     3.518744E+05     ; N-C, prebuilt ca-na
  573     636         1        0.140150     3.325443E+05     ; N-C, prebuilt c2-na
  574     611         1        0.138460     4.034213E+05     ; C-C, prebuilt c2-ca
  575     576         1        0.139840     3.858485E+05     ; C-C, prebuilt ca-ca
  575     580         1        0.139840     3.858485E+05     ; C-C, prebuilt ca-ca
  576     577         1        0.139840     3.858485E+05     ; C-C, prebuilt ca-ca
  576     642         1        0.108600     2.893654E+05     ; C-H, prebuilt ca-ha
  577     578         1        0.139840     3.858485E+05     ; C-C, prebuilt ca-ca
  577     643         1        0.108600     2.893654E+05     ; C-H, prebuilt ca-ha
  578     579         1        0.139840     3.858485E+05     ; C-C, prebuilt ca-ca
  578     581         1        0.141210     3.214986E+05     ; C-N, prebuilt ca-n
  579     580         1        0.139840     3.858485E+05     ; C-C, prebuilt ca-ca
  579     645         1        0.108600     2.893654E+05     ; C-H, prebuilt ca-ha
  580     644         1        0.108600     2.893654E+05     ; C-H, prebuilt ca-ha
  581     582         1        0.137890     3.578157E+05     ; N-C, prebuilt c-n
  581     585         1        0.137890     3.578157E+05     ; N-C, prebuilt c-n
  582     583         1        0.149060     2.894491E+05     ; C-C, prebuilt c-ca
  582     606         1        0.121830     5.336274E+05     ; C-O, prebuilt c-o
  583     584         1        0.139840     3.858485E+05     ; C-C, prebuilt ca-ca
  583     587         1        0.139840     3.858485E+05     ; C-C, prebuilt ca-ca
  584     585         1        0.149060     2.894491E+05     ; C-C, prebuilt c-ca
  584     590         1        0.139840     3.858485E+05     ; C-C, prebuilt ca-ca
  585     586         1        0.121830     5.336274E+05     ; C-O, prebuilt c-o
  587     588         1        0.139840     3.858485E+05     ; C-C, prebuilt ca-ca
  587     646         1        0.108600     2.893654E+05     ; C-H, prebuilt ca-ha
  588     589         1        0.139840     3.858485E+05     ; C-C, prebuilt ca-ca
  588     597         1        0.151560     2.686128E+05     ; C-C, prebuilt c3-ca
  589     590         1        0.139840     3.858485E+05     ; C-C, prebuilt ca-ca
  589     647         1        0.108600     2.893654E+05     ; C-H, prebuilt ca-ha
  590     648         1        0.108600     2.893654E+05     ; C-H, prebuilt ca-ha
  591     592         1        0.139840     3.858485E+05     ; C-C, prebuilt ca-ca
  591     594         1        0.139840     3.858485E+05     ; C-C, prebuilt ca-ca
  591     597         1        0.151560     2.686128E+05     ; C-C, prebuilt c3-ca
  592     593         1        0.139840     3.858485E+05     ; C-C, prebuilt ca-ca
  592     650         1        0.108600     2.893654E+05     ; C-H, prebuilt ca-ha
  593     595         1        0.139840     3.858485E+05     ; C-C, prebuilt ca-ca
  593     607         1        0.149060     2.894491E+05     ; C-C, prebuilt c-ca
  594     596         1        0.139840     3.858485E+05     ; C-C, prebuilt ca-ca
  594     649         1        0.108600     2.893654E+05     ; C-H, prebuilt ca-ha
  595     596         1        0.139840     3.858485E+05     ; C-C, prebuilt ca-ca
  595     609         1        0.149060     2.894491E+05     ; C-C, prebuilt c-ca
  596     651         1        0.108600     2.893654E+05     ; C-H, prebuilt ca-ha
  597     598         1        0.153750     2.517931E+05     ; C-C, prebuilt c3-c3
  597     602         1        0.153750     2.517931E+05     ; C-C, prebuilt c3-c3
  598     599         1        0.134970     2.986539E+05     ; C-F, prebuilt c3-f
  598     600         1        0.134970     2.986539E+05     ; C-F, prebuilt c3-f
  598     601         1        0.134970     2.986539E+05     ; C-F, prebuilt c3-f
  602     603         1        0.134970     2.986539E+05     ; C-F, prebuilt c3-f
  602     604         1        0.134970     2.986539E+05     ; C-F, prebuilt c3-f
  602     605         1        0.134970     2.986539E+05     ; C-F, prebuilt c3-f
  607     608         1        0.137890     3.578157E+05     ; C-N, prebuilt c-n
  607     652         1        0.121830     5.336274E+05     ; C-O, prebuilt c-o
  608     609         1        0.137890     3.578157E+05     ; N-C, prebuilt c-n
  608     724         1        0.141210     3.214986E+05     ; N-C, prebuilt ca-n
  609     610         1        0.121830     5.336274E+05     ; C-O, prebuilt c-o
  611     612         1        0.139840     3.858485E+05     ; C-C, prebuilt ca-ca
  611     613         1        0.139840     3.858485E+05     ; C-C, prebuilt ca-ca
  612     614         1        0.139840     3.858485E+05     ; C-C, prebuilt ca-ca
  612     653         1        0.108600     2.893654E+05     ; C-H, prebuilt ca-ha
  613     615         1        0.139840     3.858485E+05     ; C-C, prebuilt ca-ca
  613     655         1        0.108600     2.893654E+05     ; C-H, prebuilt ca-ha
  614     616         1        0.139840     3.858485E+05     ; C-C, prebuilt ca-ca
  614     654         1        0.108600     2.893654E+05     ; C-H, prebuilt ca-ha
  615     616         1        0.139840     3.858485E+05     ; C-C, prebuilt ca-ca
  615     661         1        0.108600     2.893654E+05     ; C-H, prebuilt ca-ha
  616     617         1        0.138460     4.034213E+05     ; C-C, prebuilt c2-ca
  617     618         1        0.140150     3.325443E+05     ; C-N, prebuilt c2-na
  617     619         1        0.140150     3.325443E+05     ; C-N, prebuilt c2-na
  618     620         1        0.140150     3.325443E+05     ; N-C, prebuilt c2-na
  618     626         1        0.138400     3.518744E+05     ; N-C, prebuilt ca-na
  619     621         1        0.140150     3.325443E+05     ; N-C, prebuilt c2-na
  619     622         1        0.146290     2.742194E+05     ; N-C, prebuilt c3-na
  620     621         1        0.133430     4.764739E+05     ; C-C, prebuilt c2-c2
  620     660         1        0.108680     2.883613E+05     ; C-H, prebuilt c2-h4
  621     632         1        0.150950     2.734662E+05     ; C-C, prebuilt c2-c3
  622     623         1        0.109690     2.766461E+05     ; C-H, prebuilt c3-h1
  622     624         1        0.109690     2.766461E+05     ; C-H, prebuilt c3-h1
  622     625         1        0.109690     2.766461E+05     ; C-H, prebuilt c3-h1
  626     627         1        0.139840     3.858485E+05     ; C-C, prebuilt ca-ca
  626     631         1        0.139840     3.858485E+05     ; C-C, prebuilt ca-ca
  627     628         1        0.139840     3.858485E+05     ; C-C, prebuilt ca-ca
  627     657         1        0.108600     2.893654E+05     ; C-H, prebuilt ca-ha
  628     629         1        0.139840     3.858485E+05     ; C-C, prebuilt ca-ca
  628     656         1        0.108600     2.893654E+05     ; C-H, prebuilt ca-ha
  629     630         1        0.139840     3.858485E+05     ; C-C, prebuilt ca-ca
  630     631         1        0.139840     3.858485E+05     ; C-C, prebuilt ca-ca
  630     658         1        0.108600     2.893654E+05     ; C-H, prebuilt ca-ha
  631     659         1        0.108600     2.893654E+05     ; C-H, prebuilt ca-ha
  632     633         1        0.134970     2.986539E+05     ; C-F, prebuilt c3-f
  632     634         1        0.134970     2.986539E+05     ; C-F, prebuilt c3-f
  632     635         1        0.134970     2.986539E+05     ; C-F, prebuilt c3-f
  636     637         1        0.133430     4.764739E+05     ; C-C, prebuilt c2-c2
  636     641         1        0.108680     2.883613E+05     ; C-H, prebuilt c2-h4
  637     638         1        0.150950     2.734662E+05     ; C-C, prebuilt c2-c3
  638     639         1        0.134970     2.986539E+05     ; C-F, prebuilt c3-f
  638     640         1        0.134970     2.986539E+05     ; C-F, prebuilt c3-f
  638     662         1        0.134970     2.986539E+05     ; C-F, prebuilt c3-f
  663     664         1        0.109690     2.766461E+05     ; C-H, prebuilt c3-h1
  663     665         1        0.109690     2.766461E+05     ; C-H, prebuilt c3-h1
  663     666         1        0.109690     2.766461E+05     ; C-H, prebuilt c3-h1
  667     669         1        0.140150     3.325443E+05     ; N-C, prebuilt c2-na
  667     732         1        0.140150     3.325443E+05     ; N-C, prebuilt c2-na
  667     758         1        0.146290     2.742194E+05     ; N-C, prebuilt c3-na
  668     669         1        0.140150     3.325443E+05     ; N-C, prebuilt c2-na
  668     670         1        0.138400     3.518744E+05     ; N-C, prebuilt ca-na
  668     731         1        0.140150     3.325443E+05     ; N-C, prebuilt c2-na
  669     706         1        0.138460     4.034213E+05     ; C-C, prebuilt c2-ca
  670     671         1        0.139840     3.858485E+05     ; C-C, prebuilt ca-ca
  670     675         1        0.139840     3.858485E+05     ; C-C, prebuilt ca-ca
  671     672         1        0.139840     3.858485E+05     ; C-C, prebuilt ca-ca
  671     737         1        0.108600     2.893654E+05     ; C-H, prebuilt ca-ha
  672     673         1        0.139840     3.858485E+05     ; C-C, prebuilt ca-ca
  672     738         1        0.108600     2.893654E+05     ; C-H, prebuilt ca-ha
  673     674         1        0.139840     3.858485E+05     ; C-C, prebuilt ca-ca
  673     676         1        0.141210     3.214986E+05     ; C-N, prebuilt ca-n
  674     675         1        0.139840     3.858485E+05     ; C-C, prebuilt ca-ca
  674     740         1        0.108600     2.893654E+05     ; C-H, prebuilt ca-ha
  675     739         1        0.108600     2.893654E+05     ; C-H, prebuilt ca-ha
  676     677         1        0.137890     3.578157E+05     ; N-C, prebuilt c-n
  676     680         1        0.137890     3.578157E+05     ; N-C, prebuilt c-n
  677     678         1        0.149060     2.894491E+05     ; C-C, prebuilt c-ca
  677     701         1        0.121830     5.336274E+05     ; C-O, prebuilt c-o
  678     679         1        0.139840     3.858485E+05     ; C-C, prebuilt ca-ca
  678     682         1        0.139840     3.858485E+05     ; C-C, prebuilt ca-ca
  679     680         1        0.149060     2.894491E+05     ; C-C, prebuilt c-ca
  679     685         1        0.139840     3.858485E+05     ; C-C, prebuilt ca-ca
  680     681         1        0.121830     5.336274E+05     ; C-O, prebuilt c-o
  682     683         1        0.139840     3.858485E+05     ; C-C, prebuilt ca-ca
  682     741         1        0.108600     2.893654E+05     ; C-H, prebuilt ca-ha
  683     684         1        0.139840     3.858485E+05     ; C-C, prebuilt ca-ca
  683     692         1        0.151560     2.686128E+05     ; C-C, prebuilt c3-ca
  684     685         1        0.139840     3.858485E+05     ; C-C, prebuilt ca-ca
  684     742         1        0.108600     2.893654E+05     ; C-H, prebuilt ca-ha
  685     743         1        0.108600     2.893654E+05     ; C-H, prebuilt ca-ha
  686     687         1        0.139840     3.858485E+05     ; C-C, prebuilt ca-ca
  686     689         1        0.139840     3.858485E+05     ; C-C, prebuilt ca-ca
  686     692         1        0.151560     2.686128E+05     ; C-C, prebuilt c3-ca
  687     688         1        0.139840     3.858485E+05     ; C-C, prebuilt ca-ca
  687     745         1        0.108600     2.893654E+05     ; C-H, prebuilt ca-ha
  688     690         1        0.139840     3.858485E+05     ; C-C, prebuilt ca-ca
  688     702         1        0.149060     2.894491E+05     ; C-C, prebuilt c-ca
  689     691         1        0.139840     3.858485E+05     ; C-C, prebuilt ca-ca
  689     744         1        0.108600     2.893654E+05     ; C-H, prebuilt ca-ha
  690     691         1        0.139840     3.858485E+05     ; C-C, prebuilt ca-ca
  690     704         1        0.149060     2.894491E+05     ; C-C, prebuilt c-ca
  691     746         1        0.108600     2.893654E+05     ; C-H, prebuilt ca-ha
  692     693         1        0.153750     2.517931E+05     ; C-C, prebuilt c3-c3
  692     697         1        0.153750     2.517931E+05     ; C-C, prebuilt c3-c3
  693     694         1        0.134970     2.986539E+05     ; C-F, prebuilt c3-f
  693     695         1        0.134970     2.986539E+05     ; C-F, prebuilt c3-f
  693     696         1        0.134970     2.986539E+05     ; C-F, prebuilt c3-f
  697     698         1        0.134970     2.986539E+05     ; C-F, prebuilt c3-f
  697     699         1        0.134970     2.986539E+05     ; C-F, prebuilt c3-f
  697     700         1        0.134970     2.986539E+05     ; C-F, prebuilt c3-f
  702     703         1        0.137890     3.578157E+05     ; C-N, prebuilt c-n
  702     747         1        0.121830     5.336274E+05     ; C-O, prebuilt c-o
  703     704         1        0.137890     3.578157E+05     ; N-C, prebuilt c-n
  703     819         1        0.141210     3.214986E+05     ; N-C, prebuilt ca-n
  704     705         1        0.121830     5.336274E+05     ; C-O, prebuilt c-o
  706     707         1        0.139840     3.858485E+05     ; C-C, prebuilt ca-ca
  706     708         1        0.139840     3.858485E+05     ; C-C, prebuilt ca-ca
  707     709         1        0.139840     3.858485E+05     ; C-C, prebuilt ca-ca
  707     748         1        0.108600     2.893654E+05     ; C-H, prebuilt ca-ha
  708     710         1        0.139840     3.858485E+05     ; C-C, prebuilt ca-ca
  708     750         1        0.108600     2.893654E+05     ; C-H, prebuilt ca-ha
  709     711         1        0.139840     3.858485E+05     ; C-C, prebuilt ca-ca
  709     749         1        0.108600     2.893654E+05     ; C-H, prebuilt ca-ha
  710     711         1        0.139840     3.858485E+05     ; C-C, prebuilt ca-ca
  710     756         1        0.108600     2.893654E+05     ; C-H, prebuilt ca-ha
  711     712         1        0.138460     4.034213E+05     ; C-C, prebuilt c2-ca
  712     713         1        0.140150     3.325443E+05     ; C-N, prebuilt c2-na
  712     714         1        0.140150     3.325443E+05     ; C-N, prebuilt c2-na
  713     715         1        0.140150     3.325443E+05     ; N-C, prebuilt c2-na
  713     721         1        0.138400     3.518744E+05     ; N-C, prebuilt ca-na
  714     716         1        0.140150     3.325443E+05     ; N-C, prebuilt c2-na
  714     717         1        0.146290     2.742194E+05     ; N-C, prebuilt c3-na
  715     716         1        0.133430     4.764739E+05     ; C-C, prebuilt c2-c2
  715     755         1        0.108680     2.883613E+05     ; C-H, prebuilt c2-h4
  716     727         1        0.150950     2.734662E+05     ; C-C, prebuilt c2-c3
  717     718         1        0.109690     2.766461E+05     ; C-H, prebuilt c3-h1
  717     719         1        0.109690     2.766461E+05     ; C-H, prebuilt c3-h1
  717     720         1        0.109690     2.766461E+05     ; C-H, prebuilt c3-h1
  721     722         1        0.139840     3.858485E+05     ; C-C, prebuilt ca-ca
  721     726         1        0.139840     3.858485E+05     ; C-C, prebuilt ca-ca
  722     723         1        0.139840     3.858485E+05     ; C-C, prebuilt ca-ca
  722     752         1        0.108600     2.893654E+05     ; C-H, prebuilt ca-ha
  723     724         1        0.139840     3.858485E+05     ; C-C, prebuilt ca-ca
  723     751         1        0.108600     2.893654E+05     ; C-H, prebuilt ca-ha
  724     725         1        0.139840     3.858485E+05     ; C-C, prebuilt ca-ca
  725     726         1        0.139840     3.858485E+05     ; C-C, prebuilt ca-ca
  725     753         1        0.108600     2.893654E+05     ; C-H, prebuilt ca-ha
  726     754         1        0.108600     2.893654E+05     ; C-H, prebuilt ca-ha
  727     728         1        0.134970     2.986539E+05     ; C-F, prebuilt c3-f
  727     729         1        0.134970     2.986539E+05     ; C-F, prebuilt c3-f
  727     730         1        0.134970     2.986539E+05     ; C-F, prebuilt c3-f
  731     732         1        0.133430     4.764739E+05     ; C-C, prebuilt c2-c2
  731     736         1        0.108680     2.883613E+05     ; C-H, prebuilt c2-h4
  732     733         1        0.150950     2.734662E+05     ; C-C, prebuilt c2-c3
  733     734         1        0.134970     2.986539E+05     ; C-F, prebuilt c3-f
  733     735         1        0.134970     2.986539E+05     ; C-F, prebuilt c3-f
  733     757         1        0.134970     2.986539E+05     ; C-F, prebuilt c3-f
  758     759         1        0.109690     2.766461E+05     ; C-H, prebuilt c3-h1
  758     760         1        0.109690     2.766461E+05     ; C-H, prebuilt c3-h1
  758     761         1        0.109690     2.766461E+05     ; C-H, prebuilt c3-h1
  762     764         1        0.140150     3.325443E+05     ; N-C, prebuilt c2-na
  762     827         1        0.140150     3.325443E+05     ; N-C, prebuilt c2-na
  762     853         1        0.146290     2.742194E+05     ; N-C, prebuilt c3-na
  763     764         1        0.140150     3.325443E+05     ; N-C, prebuilt c2-na
  763     765         1        0.138400     3.518744E+05     ; N-C, prebuilt ca-na
  763     826         1        0.140150     3.325443E+05     ; N-C, prebuilt c2-na
  764     801         1        0.138460     4.034213E+05     ; C-C, prebuilt c2-ca
  765     766         1        0.139840     3.858485E+05     ; C-C, prebuilt ca-ca
  765     770         1        0.139840     3.858485E+05     ; C-C, prebuilt ca-ca
  766     767         1        0.139840     3.858485E+05     ; C-C, prebuilt ca-ca
  766     832         1        0.108600     2.893654E+05     ; C-H, prebuilt ca-ha
  767     768         1        0.139840     3.858485E+05     ; C-C, prebuilt ca-ca
  767     833         1        0.108600     2.893654E+05     ; C-H, prebuilt ca-ha
  768     769         1        0.139840     3.858485E+05     ; C-C, prebuilt ca-ca
  768     771         1        0.141210     3.214986E+05     ; C-N, prebuilt ca-n
  769     770         1        0.139840     3.858485E+05     ; C-C, prebuilt ca-ca
  769     835         1        0.108600     2.893654E+05     ; C-H, prebuilt ca-ha
  770     834         1        0.108600     2.893654E+05     ; C-H, prebuilt ca-ha
  771     772         1        0.137890     3.578157E+05     ; N-C, prebuilt c-n
  771     775         1        0.137890     3.578157E+05     ; N-C, prebuilt c-n
  772     773         1        0.149060     2.894491E+05     ; C-C, prebuilt c-ca
  772     796         1        0.121830     5.336274E+05     ; C-O, prebuilt c-o
  773     774         1        0.139840     3.858485E+05     ; C-C, prebuilt ca-ca
  773     777         1        0.139840     3.858485E+05     ; C-C, prebuilt ca-ca
  774     775         1        0.149060     2.894491E+05     ; C-C, prebuilt c-ca
  774     780         1        0.139840     3.858485E+05     ; C-C, prebuilt ca-ca
  775     776         1        0.121830     5.336274E+05     ; C-O, prebuilt c-o
  777     778         1        0.139840     3.858485E+05     ; C-C, prebuilt ca-ca
  777     836         1        0.108600     2.893654E+05     ; C-H, prebuilt ca-ha
  778     779         1        0.139840     3.858485E+05     ; C-C, prebuilt ca-ca
  778     787         1        0.151560     2.686128E+05     ; C-C, prebuilt c3-ca
  779     780         1        0.139840     3.858485E+05     ; C-C, prebuilt ca-ca
  779     837         1        0.108600     2.893654E+05     ; C-H, prebuilt ca-ha
  780     838         1        0.108600     2.893654E+05     ; C-H, prebuilt ca-ha
  781     782         1        0.139840     3.858485E+05     ; C-C, prebuilt ca-ca
  781     784         1        0.139840     3.858485E+05     ; C-C, prebuilt ca-ca
  781     787         1        0.151560     2.686128E+05     ; C-C, prebuilt c3-ca
  782     783         1        0.139840     3.858485E+05     ; C-C, prebuilt ca-ca
  782     840         1        0.108600     2.893654E+05     ; C-H, prebuilt ca-ha
  783     785         1        0.139840     3.858485E+05     ; C-C, prebuilt ca-ca
  783     797         1        0.149060     2.894491E+05     ; C-C, prebuilt c-ca
  784     786         1        0.139840     3.858485E+05     ; C-C, prebuilt ca-ca
  784     839         1        0.108600     2.893654E+05     ; C-H, prebuilt ca-ha
  785     786         1        0.139840     3.858485E+05     ; C-C, prebuilt ca-ca
  785     799         1        0.149060     2.894491E+05     ; C-C, prebuilt c-ca
  786     841         1        0.108600     2.893654E+05     ; C-H, prebuilt ca-ha
  787     788         1        0.153750     2.517931E+05     ; C-C, prebuilt c3-c3
  787     792         1        0.153750     2.517931E+05     ; C-C, prebuilt c3-c3
  788     789         1        0.134970     2.986539E+05     ; C-F, prebuilt c3-f
  788     790         1        0.134970     2.986539E+05     ; C-F, prebuilt c3-f
  788     791         1        0.134970     2.986539E+05     ; C-F, prebuilt c3-f
  792     793         1        0.134970     2.986539E+05     ; C-F, prebuilt c3-f
  792     794         1        0.134970     2.986539E+05     ; C-F, prebuilt c3-f
  792     795         1        0.134970     2.986539E+05     ; C-F, prebuilt c3-f
  797     798         1        0.137890     3.578157E+05     ; C-N, prebuilt c-n
  797     842         1        0.121830     5.336274E+05     ; C-O, prebuilt c-o
  798     799         1        0.137890     3.578157E+05     ; N-C, prebuilt c-n
  798     914         1        0.141210     3.214986E+05     ; N-C, prebuilt ca-n
  799     800         1        0.121830     5.336274E+05     ; C-O, prebuilt c-o
  801     802         1        0.139840     3.858485E+05     ; C-C, prebuilt ca-ca
  801     803         1        0.139840     3.858485E+05     ; C-C, prebuilt ca-ca
  802     804         1        0.139840     3.858485E+05     ; C-C, prebuilt ca-ca
  802     843         1        0.108600     2.893654E+05     ; C-H, prebuilt ca-ha
  803     805         1        0.139840     3.858485E+05     ; C-C, prebuilt ca-ca
  803     845         1        0.108600     2.893654E+05     ; C-H, prebuilt ca-ha
  804     806         1        0.139840     3.858485E+05     ; C-C, prebuilt ca-ca
  804     844         1        0.108600     2.893654E+05     ; C-H, prebuilt ca-ha
  805     806         1        0.139840     3.858485E+05     ; C-C, prebuilt ca-ca
  805     851         1        0.108600     2.893654E+05     ; C-H, prebuilt ca-ha
  806     807         1        0.138460     4.034213E+05     ; C-C, prebuilt c2-ca
  807     808         1        0.140150     3.325443E+05     ; C-N, prebuilt c2-na
  807     809         1        0.140150     3.325443E+05     ; C-N, prebuilt c2-na
  808     810         1        0.140150     3.325443E+05     ; N-C, prebuilt c2-na
  808     816         1        0.138400     3.518744E+05     ; N-C, prebuilt ca-na
  809     811         1        0.140150     3.325443E+05     ; N-C, prebuilt c2-na
  809     812         1        0.146290     2.742194E+05     ; N-C, prebuilt c3-na
  810     811         1        0.133430     4.764739E+05     ; C-C, prebuilt c2-c2
  810     850         1        0.108680     2.883613E+05     ; C-H, prebuilt c2-h4
  811     822         1        0.150950     2.734662E+05     ; C-C, prebuilt c2-c3
  812     813         1        0.109690     2.766461E+05     ; C-H, prebuilt c3-h1
  812     814         1        0.109690     2.766461E+05     ; C-H, prebuilt c3-h1
  812     815         1        0.109690     2.766461E+05     ; C-H, prebuilt c3-h1
  816     817         1        0.139840     3.858485E+05     ; C-C, prebuilt ca-ca
  816     821         1        0.139840     3.858485E+05     ; C-C, prebuilt ca-ca
  817     818         1        0.139840     3.858485E+05     ; C-C, prebuilt ca-ca
  817     847         1        0.108600     2.893654E+05     ; C-H, prebuilt ca-ha
  818     819         1        0.139840     3.858485E+05     ; C-C, prebuilt ca-ca
  818     846         1        0.108600     2.893654E+05     ; C-H, prebuilt ca-ha
  819     820         1        0.139840     3.858485E+05     ; C-C, prebuilt ca-ca
  820     821         1        0.139840     3.858485E+05     ; C-C, prebuilt ca-ca
  820     848         1        0.108600     2.893654E+05     ; C-H, prebuilt ca-ha
  821     849         1        0.108600     2.893654E+05     ; C-H, prebuilt ca-ha
  822     823         1        0.134970     2.986539E+05     ; C-F, prebuilt c3-f
  822     824         1        0.134970     2.986539E+05     ; C-F, prebuilt c3-f
  822     825         1        0.134970     2.986539E+05     ; C-F, prebuilt c3-f
  826     827         1        0.133430     4.764739E+05     ; C-C, prebuilt c2-c2
  826     831         1        0.108680     2.883613E+05     ; C-H, prebuilt c2-h4
  827     828         1        0.150950     2.734662E+05     ; C-C, prebuilt c2-c3
  828     829         1        0.134970     2.986539E+05     ; C-F, prebuilt c3-f
  828     830         1        0.134970     2.986539E+05     ; C-F, prebuilt c3-f
  828     852         1        0.134970     2.986539E+05     ; C-F, prebuilt c3-f
  853     854         1        0.109690     2.766461E+05     ; C-H, prebuilt c3-h1
  853     855         1        0.109690     2.766461E+05     ; C-H, prebuilt c3-h1
  853     856         1        0.109690     2.766461E+05     ; C-H, prebuilt c3-h1
  857     859         1        0.140150     3.325443E+05     ; N-C, prebuilt c2-na
  857     922         1        0.140150     3.325443E+05     ; N-C, prebuilt c2-na
  857     948         1        0.146290     2.742194E+05     ; N-C, prebuilt c3-na
  858     859         1        0.140150     3.325443E+05     ; N-C, prebuilt c2-na
  858     860         1        0.138400     3.518744E+05     ; N-C, prebuilt ca-na
  858     921         1        0.140150     3.325443E+05     ; N-C, prebuilt c2-na
  859     896         1        0.138460     4.034213E+05     ; C-C, prebuilt c2-ca
  860     861         1        0.139840     3.858485E+05     ; C-C, prebuilt ca-ca
  860     865         1        0.139840     3.858485E+05     ; C-C, prebuilt ca-ca
  861     862         1        0.139840     3.858485E+05     ; C-C, prebuilt ca-ca
  861     927         1        0.108600     2.893654E+05     ; C-H, prebuilt ca-ha
  862     863         1        0.139840     3.858485E+05     ; C-C, prebuilt ca-ca
  862     928         1        0.108600     2.893654E+05     ; C-H, prebuilt ca-ha
  863     864         1        0.139840     3.858485E+05     ; C-C, prebuilt ca-ca
  863     866         1        0.141210     3.214986E+05     ; C-N, prebuilt ca-n
  864     865         1        0.139840     3.858485E+05     ; C-C, prebuilt ca-ca
  864     930         1        0.108600     2.893654E+05     ; C-H, prebuilt ca-ha
  865     929         1        0.108600     2.893654E+05     ; C-H, prebuilt ca-ha
  866     867         1        0.137890     3.578157E+05     ; N-C, prebuilt c-n
  866     870         1        0.137890     3.578157E+05     ; N-C, prebuilt c-n
  867     868         1        0.149060     2.894491E+05     ; C-C, prebuilt c-ca
  867     891         1        0.121830     5.336274E+05     ; C-O, prebuilt c-o
  868     869         1        0.139840     3.858485E+05     ; C-C, prebuilt ca-ca
  868     872         1        0.139840     3.858485E+05     ; C-C, prebuilt ca-ca
  869     870         1        0.149060     2.894491E+05     ; C-C, prebuilt c-ca
  869     875         1        0.139840     3.858485E+05     ; C-C, prebuilt ca-ca
  870     871         1        0.121830     5.336274E+05     ; C-O, prebuilt c-o
  872     873         1        0.139840     3.858485E+05     ; C-C, prebuilt ca-ca
  872     931         1        0.108600     2.893654E+05     ; C-H, prebuilt ca-ha
  873     874         1        0.139840     3.858485E+05     ; C-C, prebuilt ca-ca
  873     882         1        0.151560     2.686128E+05     ; C-C, prebuilt c3-ca
  874     875         1        0.139840     3.858485E+05     ; C-C, prebuilt ca-ca
  874     932         1        0.108600     2.893654E+05     ; C-H, prebuilt ca-ha
  875     933         1        0.108600     2.893654E+05     ; C-H, prebuilt ca-ha
  876     877         1        0.139840     3.858485E+05     ; C-C, prebuilt ca-ca
  876     879         1        0.139840     3.858485E+05     ; C-C, prebuilt ca-ca
  876     882         1        0.151560     2.686128E+05     ; C-C, prebuilt c3-ca
  877     878         1        0.139840     3.858485E+05     ; C-C, prebuilt ca-ca
  877     935         1        0.108600     2.893654E+05     ; C-H, prebuilt ca-ha
  878     880         1        0.139840     3.858485E+05     ; C-C, prebuilt ca-ca
  878     892         1        0.149060     2.894491E+05     ; C-C, prebuilt c-ca
  879     881         1        0.139840     3.858485E+05     ; C-C, prebuilt ca-ca
  879     934         1        0.108600     2.893654E+05     ; C-H, prebuilt ca-ha
  880     881         1        0.139840     3.858485E+05     ; C-C, prebuilt ca-ca
  880     894         1        0.149060     2.894491E+05     ; C-C, prebuilt c-ca
  881     936         1        0.108600     2.893654E+05     ; C-H, prebuilt ca-ha
  882     883         1        0.153750     2.517931E+05     ; C-C, prebuilt c3-c3
  882     887         1        0.153750     2.517931E+05     ; C-C, prebuilt c3-c3
  883     884         1        0.134970     2.986539E+05     ; C-F, prebuilt c3-f
  883     885         1        0.134970     2.986539E+05     ; C-F, prebuilt c3-f
  883     886         1        0.134970     2.986539E+05     ; C-F, prebuilt c3-f
  887     888         1        0.134970     2.986539E+05     ; C-F, prebuilt c3-f
  887     889         1        0.134970     2.986539E+05     ; C-F, prebuilt c3-f
  887     890         1        0.134970     2.986539E+05     ; C-F, prebuilt c3-f
  892     893         1        0.137890     3.578157E+05     ; C-N, prebuilt c-n
  892     937         1        0.121830     5.336274E+05     ; C-O, prebuilt c-o
  893     894         1        0.137890     3.578157E+05     ; N-C, prebuilt c-n
  893    1009         1        0.141210     3.214986E+05     ; N-C, prebuilt ca-n
  894     895         1        0.121830     5.336274E+05     ; C-O, prebuilt c-o
  896     897         1        0.139840     3.858485E+05     ; C-C, prebuilt ca-ca
  896     898         1        0.139840     3.858485E+05     ; C-C, prebuilt ca-ca
  897     899         1        0.139840     3.858485E+05     ; C-C, prebuilt ca-ca
  897     938         1        0.108600     2.893654E+05     ; C-H, prebuilt ca-ha
  898     900         1        0.139840     3.858485E+05     ; C-C, prebuilt ca-ca
  898     940         1        0.108600     2.893654E+05     ; C-H, prebuilt ca-ha
  899     901         1        0.139840     3.858485E+05     ; C-C, prebuilt ca-ca
  899     939         1        0.108600     2.893654E+05     ; C-H, prebuilt ca-ha
  900     901         1        0.139840     3.858485E+05     ; C-C, prebuilt ca-ca
  900     946         1        0.108600     2.893654E+05     ; C-H, prebuilt ca-ha
  901     902         1        0.138460     4.034213E+05     ; C-C, prebuilt c2-ca
  902     903         1        0.140150     3.325443E+05     ; C-N, prebuilt c2-na
  902     904         1        0.140150     3.325443E+05     ; C-N, prebuilt c2-na
  903     905         1        0.140150     3.325443E+05     ; N-C, prebuilt c2-na
  903     911         1        0.138400     3.518744E+05     ; N-C, prebuilt ca-na
  904     906         1        0.140150     3.325443E+05     ; N-C, prebuilt c2-na
  904     907         1        0.146290     2.742194E+05     ; N-C, prebuilt c3-na
  905     906         1        0.133430     4.764739E+05     ; C-C, prebuilt c2-c2
  905     945         1        0.108680     2.883613E+05     ; C-H, prebuilt c2-h4
  906     917         1        0.150950     2.734662E+05     ; C-C, prebuilt c2-c3
  907     908         1        0.109690     2.766461E+05     ; C-H, prebuilt c3-h1
  907     909         1        0.109690     2.766461E+05     ; C-H, prebuilt c3-h1
  907     910         1        0.109690     2.766461E+05     ; C-H, prebuilt c3-h1
  911     912         1        0.139840     3.858485E+05     ; C-C, prebuilt ca-ca
  911     916         1        0.139840     3.858485E+05     ; C-C, prebuilt ca-ca
  912     913         1        0.139840     3.858485E+05     ; C-C, prebuilt ca-ca
  912     942         1        0.108600     2.893654E+05     ; C-H, prebuilt ca-ha
  913     914         1        0.139840     3.858485E+05     ; C-C, prebuilt ca-ca
  913     941         1        0.108600     2.893654E+05     ; C-H, prebuilt ca-ha
  914     915         1        0.139840     3.858485E+05     ; C-C, prebuilt ca-ca
  915     916         1        0.139840     3.858485E+05     ; C-C, prebuilt ca-ca
  915     943         1        0.108600     2.893654E+05     ; C-H, prebuilt ca-ha
  916     944         1        0.108600     2.893654E+05     ; C-H, prebuilt ca-ha
  917     918         1        0.134970     2.986539E+05     ; C-F, prebuilt c3-f
  917     919         1        0.134970     2.986539E+05     ; C-F, prebuilt c3-f
  917     920         1        0.134970     2.986539E+05     ; C-F, prebuilt c3-f
  921     922         1        0.133430     4.764739E+05     ; C-C, prebuilt c2-c2
  921     926         1        0.108680     2.883613E+05     ; C-H, prebuilt c2-h4
  922     923         1        0.150950     2.734662E+05     ; C-C, prebuilt c2-c3
  923     924         1        0.134970     2.986539E+05     ; C-F, prebuilt c3-f
  923     925         1        0.134970     2.986539E+05     ; C-F, prebuilt c3-f
  923     947         1        0.134970     2.986539E+05     ; C-F, prebuilt c3-f
  948     949         1        0.109690     2.766461E+05     ; C-H, prebuilt c3-h1
  948     950         1        0.109690     2.766461E+05     ; C-H, prebuilt c3-h1
  948     951         1        0.109690     2.766461E+05     ; C-H, prebuilt c3-h1
  952     954         1        0.140150     3.325443E+05     ; N-C, prebuilt c2-na
  952    1017         1        0.140150     3.325443E+05     ; N-C, prebuilt c2-na
  952    1043         1        0.146290     2.742194E+05     ; N-C, prebuilt c3-na
  953     954         1        0.140150     3.325443E+05     ; N-C, prebuilt c2-na
  953     955         1        0.138400     3.518744E+05     ; N-C, prebuilt ca-na
  953    1016         1        0.140150     3.325443E+05     ; N-C, prebuilt c2-na
  954     991         1        0.138460     4.034213E+05     ; C-C, prebuilt c2-ca
  955     956         1        0.139840     3.858485E+05     ; C-C, prebuilt ca-ca
  955     960         1        0.139840     3.858485E+05     ; C-C, prebuilt ca-ca
  956     957         1        0.139840     3.858485E+05     ; C-C, prebuilt ca-ca
  956    1022         1        0.108600     2.893654E+05     ; C-H, prebuilt ca-ha
  957     958         1        0.139840     3.858485E+05     ; C-C, prebuilt ca-ca
  957    1023         1        0.108600     2.893654E+05     ; C-H, prebuilt ca-ha
  958     959         1        0.139840     3.858485E+05     ; C-C, prebuilt ca-ca
  958     961         1        0.141210     3.214986E+05     ; C-N, prebuilt ca-n
  959     960         1        0.139840     3.858485E+05     ; C-C, prebuilt ca-ca
  959    1025         1        0.108600     2.893654E+05     ; C-H, prebuilt ca-ha
  960    1024         1        0.108600     2.893654E+05     ; C-H, prebuilt ca-ha
  961     962         1        0.137890     3.578157E+05     ; N-C, prebuilt c-n
  961     965         1        0.137890     3.578157E+05     ; N-C, prebuilt c-n
  962     963         1        0.149060     2.894491E+05     ; C-C, prebuilt c-ca
  962     986         1        0.121830     5.336274E+05     ; C-O, prebuilt c-o
  963     964         1        0.139840     3.858485E+05     ; C-C, prebuilt ca-ca
  963     967         1        0.139840     3.858485E+05     ; C-C, prebuilt ca-ca
  964     965         1        0.149060     2.894491E+05     ; C-C, prebuilt c-ca
  964     970         1        0.139840     3.858485E+05     ; C-C, prebuilt ca-ca
  965     966         1        0.121830     5.336274E+05     ; C-O, prebuilt c-o
  967     968         1        0.139840     3.858485E+05     ; C-C, prebuilt ca-ca
  967    1026         1        0.108600     2.893654E+05     ; C-H, prebuilt ca-ha
  968     969         1        0.139840     3.858485E+05     ; C-C, prebuilt ca-ca
  968     977         1        0.151560     2.686128E+05     ; C-C, prebuilt c3-ca
  969     970         1        0.139840     3.858485E+05     ; C-C, prebuilt ca-ca
  969    1027         1        0.108600     2.893654E+05     ; C-H, prebuilt ca-ha
  970    1028         1        0.108600     2.893654E+05     ; C-H, prebuilt ca-ha
  971     972         1        0.139840     3.858485E+05     ; C-C, prebuilt ca-ca
  971     974         1        0.139840     3.858485E+05     ; C-C, prebuilt ca-ca
  971     977         1        0.151560     2.686128E+05     ; C-C, prebuilt c3-ca
  972     973         1        0.139840     3.858485E+05     ; C-C, prebuilt ca-ca
  972    1030         1        0.108600     2.893654E+05     ; C-H, prebuilt ca-ha
  973     975         1        0.139840     3.858485E+05     ; C-C, prebuilt ca-ca
  973     987         1        0.149060     2.894491E+05     ; C-C, prebuilt c-ca
  974     976         1        0.139840     3.858485E+05     ; C-C, prebuilt ca-ca
  974    1029         1        0.108600     2.893654E+05     ; C-H, prebuilt ca-ha
  975     976         1        0.139840     3.858485E+05     ; C-C, prebuilt ca-ca
  975     989         1        0.149060     2.894491E+05     ; C-C, prebuilt c-ca
  976    1031         1        0.108600     2.893654E+05     ; C-H, prebuilt ca-ha
  977     978         1        0.153750     2.517931E+05     ; C-C, prebuilt c3-c3
  977     982         1        0.153750     2.517931E+05     ; C-C, prebuilt c3-c3
  978     979         1        0.134970     2.986539E+05     ; C-F, prebuilt c3-f
  978     980         1        0.134970     2.986539E+05     ; C-F, prebuilt c3-f
  978     981         1        0.134970     2.986539E+05     ; C-F, prebuilt c3-f
  982     983         1        0.134970     2.986539E+05     ; C-F, prebuilt c3-f
  982     984         1        0.134970     2.986539E+05     ; C-F, prebuilt c3-f
  982     985         1        0.134970     2.986539E+05     ; C-F, prebuilt c3-f
  987     988         1        0.137890     3.578157E+05     ; C-N, prebuilt c-n
  987    1032         1        0.121830     5.336274E+05     ; C-O, prebuilt c-o
  988     989         1        0.137890     3.578157E+05     ; N-C, prebuilt c-n
  988    1104         1        0.141210     3.214986E+05     ; N-C, prebuilt ca-n
  989     990         1        0.121830     5.336274E+05     ; C-O, prebuilt c-o
  991     992         1        0.139840     3.858485E+05     ; C-C, prebuilt ca-ca
  991     993         1        0.139840     3.858485E+05     ; C-C, prebuilt ca-ca
  992     994         1        0.139840     3.858485E+05     ; C-C, prebuilt ca-ca
  992    1033         1        0.108600     2.893654E+05     ; C-H, prebuilt ca-ha
  993     995         1        0.139840     3.858485E+05     ; C-C, prebuilt ca-ca
  993    1035         1        0.108600     2.893654E+05     ; C-H, prebuilt ca-ha
  994     996         1        0.139840     3.858485E+05     ; C-C, prebuilt ca-ca
  994    1034         1        0.108600     2.893654E+05     ; C-H, prebuilt ca-ha
  995     996         1        0.139840     3.858485E+05     ; C-C, prebuilt ca-ca
  995    1041         1        0.108600     2.893654E+05     ; C-H, prebuilt ca-ha
  996     997         1        0.138460     4.034213E+05     ; C-C, prebuilt c2-ca
  997     998         1        0.140150     3.325443E+05     ; C-N, prebuilt c2-na
  997     999         1        0.140150     3.325443E+05     ; C-N, prebuilt c2-na
  998    1000         1        0.140150     3.325443E+05     ; N-C, prebuilt c2-na
  998    1006         1        0.138400     3.518744E+05     ; N-C, prebuilt ca-na
  999    1001         1        0.140150     3.325443E+05     ; N-C, prebuilt c2-na
  999    1002         1        0.146290     2.742194E+05     ; N-C, prebuilt c3-na
 1000    1001         1        0.133430     4.764739E+05     ; C-C, prebuilt c2-c2
 1000    1040         1        0.108680     2.883613E+05     ; C-H, prebuilt c2-h4
 1001    1012         1        0.150950     2.734662E+05     ; C-C, prebuilt c2-c3
 1002    1003         1        0.109690     2.766461E+05     ; C-H, prebuilt c3-h1
 1002    1004         1        0.109690     2.766461E+05     ; C-H, prebuilt c3-h1
 1002    1005         1        0.109690     2.766461E+05     ; C-H, prebuilt c3-h1
 1006    1007         1        0.139840     3.858485E+05     ; C-C, prebuilt ca-ca
 1006    1011         1        0.139840     3.858485E+05     ; C-C, prebuilt ca-ca
 1007    1008         1        0.139840     3.858485E+05     ; C-C, prebuilt ca-ca
 1007    1037         1        0.108600     2.893654E+05     ; C-H, prebuilt ca-ha
 1008    1009         1        0.139840     3.858485E+05     ; C-C, prebuilt ca-ca
 1008    1036         1        0.108600     2.893654E+05     ; C-H, prebuilt ca-ha
 1009    1010         1        0.139840     3.858485E+05     ; C-C, prebuilt ca-ca
 1010    1011         1        0.139840     3.858485E+05     ; C-C, prebuilt ca-ca
 1010    1038         1        0.108600     2.893654E+05     ; C-H, prebuilt ca-ha
 1011    1039         1        0.108600     2.893654E+05     ; C-H, prebuilt ca-ha
 1012    1013         1        0.134970     2.986539E+05     ; C-F, prebuilt c3-f
 1012    1014         1        0.134970     2.986539E+05     ; C-F, prebuilt c3-f
 1012    1015         1        0.134970     2.986539E+05     ; C-F, prebuilt c3-f
 1016    1017         1        0.133430     4.764739E+05     ; C-C, prebuilt c2-c2
 1016    1021         1        0.108680     2.883613E+05     ; C-H, prebuilt c2-h4
 1017    1018         1        0.150950     2.734662E+05     ; C-C, prebuilt c2-c3
 1018    1019         1        0.134970     2.986539E+05     ; C-F, prebuilt c3-f
 1018    1020         1        0.134970     2.986539E+05     ; C-F, prebuilt c3-f
 1018    1042         1        0.134970     2.986539E+05     ; C-F, prebuilt c3-f
 1043    1044         1        0.109690     2.766461E+05     ; C-H, prebuilt c3-h1
 1043    1045         1        0.109690     2.766461E+05     ; C-H, prebuilt c3-h1
 1043    1046         1        0.109690     2.766461E+05     ; C-H, prebuilt c3-h1
 1047    1049         1        0.140150     3.325443E+05     ; N-C, prebuilt c2-na
 1047    1112         1        0.140150     3.325443E+05     ; N-C, prebuilt c2-na
 1047    1138         1        0.146290     2.742194E+05     ; N-C, prebuilt c3-na
 1048    1049         1        0.140150     3.325443E+05     ; N-C, prebuilt c2-na
 1048    1050         1        0.138400     3.518744E+05     ; N-C, prebuilt ca-na
 1048    1111         1        0.140150     3.325443E+05     ; N-C, prebuilt c2-na
 1049    1086         1        0.138460     4.034213E+05     ; C-C, prebuilt c2-ca
 1050    1051         1        0.139840     3.858485E+05     ; C-C, prebuilt ca-ca
 1050    1055         1        0.139840     3.858485E+05     ; C-C, prebuilt ca-ca
 1051    1052         1        0.139840     3.858485E+05     ; C-C, prebuilt ca-ca
 1051    1117         1        0.108600     2.893654E+05     ; C-H, prebuilt ca-ha
 1052    1053         1        0.139840     3.858485E+05     ; C-C, prebuilt ca-ca
 1052    1118         1        0.108600     2.893654E+05     ; C-H, prebuilt ca-ha
 1053    1054         1        0.139840     3.858485E+05     ; C-C, prebuilt ca-ca
 1053    1056         1        0.141210     3.214986E+05     ; C-N, prebuilt ca-n
 1054    1055         1        0.139840     3.858485E+05     ; C-C, prebuilt ca-ca
 1054    1120         1        0.108600     2.893654E+05     ; C-H, prebuilt ca-ha
 1055    1119         1        0.108600     2.893654E+05     ; C-H, prebuilt ca-ha
 1056    1057         1        0.137890     3.578157E+05     ; N-C, prebuilt c-n
 1056    1060         1        0.137890     3.578157E+05     ; N-C, prebuilt c-n
 1057    1058         1        0.149060     2.894491E+05     ; C-C, prebuilt c-ca
 1057    1081         1        0.121830     5.336274E+05     ; C-O, prebuilt c-o
 1058    1059         1        0.139840     3.858485E+05     ; C-C, prebuilt ca-ca
 1058    1062         1        0.139840     3.858485E+05     ; C-C, prebuilt ca-ca
 1059    1060         1        0.149060     2.894491E+05     ; C-C, prebuilt c-ca
 1059    1065         1        0.139840     3.858485E+05     ; C-C, prebuilt ca-ca
 1060    1061         1        0.121830     5.336274E+05     ; C-O, prebuilt c-o
 1062    1063         1        0.139840     3.858485E+05     ; C-C, prebuilt ca-ca
 1062    1121         1        0.108600     2.893654E+05     ; C-H, prebuilt ca-ha
 1063    1064         1        0.139840     3.858485E+05     ; C-C, prebuilt ca-ca
 1063    1072         1        0.151560     2.686128E+05     ; C-C, prebuilt c3-ca
 1064    1065         1        0.139840     3.858485E+05     ; C-C, prebuilt ca-ca
 1064    1122         1        0.108600     2.893654E+05     ; C-H, prebuilt ca-ha
 1065    1123         1        0.108600     2.893654E+05     ; C-H, prebuilt ca-ha
 1066    1067         1        0.139840     3.858485E+05     ; C-C, prebuilt ca-ca
 1066    1069         1        0.139840     3.858485E+05     ; C-C, prebuilt ca-ca
 1066    1072         1        0.151560     2.686128E+05     ; C-C, prebuilt c3-ca
 1067    1068         1        0.139840     3.858485E+05     ; C-C, prebuilt ca-ca
 1067    1125         1        0.108600     2.893654E+05     ; C-H, prebuilt ca-ha
 1068    1070         1        0.139840     3.858485E+05     ; C-C, prebuilt ca-ca
 1068    1082         1        0.149060     2.894491E+05     ; C-C, prebuilt c-ca
 1069    1071         1        0.139840     3.858485E+05     ; C-C, prebuilt ca-ca
 1069    1124         1        0.108600     2.893654E+05     ; C-H, prebuilt ca-ha
 1070    1071         1        0.139840     3.858485E+05     ; C-C, prebuilt ca-ca
 1070    1084         1        0.149060     2.894491E+05     ; C-C, prebuilt c-ca
 1071    1126         1        0.108600     2.893654E+05     ; C-H, prebuilt ca-ha
 1072    1073         1        0.153750     2.517931E+05     ; C-C, prebuilt c3-c3
 1072    1077         1        0.153750     2.517931E+05     ; C-C, prebuilt c3-c3
 1073    1074         1        0.134970     2.986539E+05     ; C-F, prebuilt c3-f
 1073    1075         1        0.134970     2.986539E+05     ; C-F, prebuilt c3-f
 1073    1076         1        0.134970     2.986539E+05     ; C-F, prebuilt c3-f
 1077    1078         1        0.134970     2.986539E+05     ; C-F, prebuilt c3-f
 1077    1079         1        0.134970     2.986539E+05     ; C-F, prebuilt c3-f
 1077    1080         1        0.134970     2.986539E+05     ; C-F, prebuilt c3-f
 1082    1083         1        0.137890     3.578157E+05     ; C-N, prebuilt c-n
 1082    1127         1        0.121830     5.336274E+05     ; C-O, prebuilt c-o
 1083    1084         1        0.137890     3.578157E+05     ; N-C, prebuilt c-n
 1083    1199         1        0.141210     3.214986E+05     ; N-C, prebuilt ca-n
 1084    1085         1        0.121830     5.336274E+05     ; C-O, prebuilt c-o
 1086    1087         1        0.139840     3.858485E+05     ; C-C, prebuilt ca-ca
 1086    1088         1        0.139840     3.858485E+05     ; C-C, prebuilt ca-ca
 1087    1089         1        0.139840     3.858485E+05     ; C-C, prebuilt ca-ca
 1087    1128         1        0.108600     2.893654E+05     ; C-H, prebuilt ca-ha
 1088    1090         1        0.139840     3.858485E+05     ; C-C, prebuilt ca-ca
 1088    1130         1        0.108600     2.893654E+05     ; C-H, prebuilt ca-ha
 1089    1091         1        0.139840     3.858485E+05     ; C-C, prebuilt ca-ca
 1089    1129         1        0.108600     2.893654E+05     ; C-H, prebuilt ca-ha
 1090    1091         1        0.139840     3.858485E+05     ; C-C, prebuilt ca-ca
 1090    1136         1        0.108600     2.893654E+05     ; C-H, prebuilt ca-ha
 1091    1092         1        0.138460     4.034213E+05     ; C-C, prebuilt c2-ca
 1092    1093         1        0.140150     3.325443E+05     ; C-N, prebuilt c2-na
 1092    1094         1        0.140150     3.325443E+05     ; C-N, prebuilt c2-na
 1093    1095         1        0.140150     3.325443E+05     ; N-C, prebuilt c2-na
 1093    1101         1        0.138400     3.518744E+05     ; N-C, prebuilt ca-na
 1094    1096         1        0.140150     3.325443E+05     ; N-C, prebuilt c2-na
 1094    1097         1        0.146290     2.742194E+05     ; N-C, prebuilt c3-na
 1095    1096         1        0.133430     4.764739E+05     ; C-C, prebuilt c2-c2
 1095    1135         1        0.108680     2.883613E+05     ; C-H, prebuilt c2-h4
 1096    1107         1        0.150950     2.734662E+05     ; C-C, prebuilt c2-c3
 1097    1098         1        0.109690     2.766461E+05     ; C-H, prebuilt c3-h1
 1097    1099         1        0.109690     2.766461E+05     ; C-H, prebuilt c3-h1
 1097    1100         1        0.109690     2.766461E+05     ; C-H, prebuilt c3-h1
 1101    1102         1        0.139840     3.858485E+05     ; C-C, prebuilt ca-ca
 1101    1106         1        0.139840     3.858485E+05     ; C-C, prebuilt ca-ca
 1102    1103         1        0.139840     3.858485E+05     ; C-C, prebuilt ca-ca
 1102    1132         1        0.108600     2.893654E+05     ; C-H, prebuilt ca-ha
 1103    1104         1        0.139840     3.858485E+05     ; C-C, prebuilt ca-ca
 1103    1131         1        0.108600     2.893654E+05     ; C-H, prebuilt ca-ha
 1104    1105         1        0.139840     3.858485E+05     ; C-C, prebuilt ca-ca
 1105    1106         1        0.139840     3.858485E+05     ; C-C, prebuilt ca-ca
 1105    1133         1        0.108600     2.893654E+05     ; C-H, prebuilt ca-ha
 1106    1134         1        0.108600     2.893654E+05     ; C-H, prebuilt ca-ha
 1107    1108         1        0.134970     2.986539E+05     ; C-F, prebuilt c3-f
 1107    1109         1        0.134970     2.986539E+05     ; C-F, prebuilt c3-f
 1107    1110         1        0.134970     2.986539E+05     ; C-F, prebuilt c3-f
 1111    1112         1        0.133430     4.764739E+05     ; C-C, prebuilt c2-c2
 1111    1116         1        0.108680     2.883613E+05     ; C-H, prebuilt c2-h4
 1112    1113         1        0.150950     2.734662E+05     ; C-C, prebuilt c2-c3
 1113    1114         1        0.134970     2.986539E+05     ; C-F, prebuilt c3-f
 1113    1115         1        0.134970     2.986539E+05     ; C-F, prebuilt c3-f
 1113    1137         1        0.134970     2.986539E+05     ; C-F, prebuilt c3-f
 1138    1139         1        0.109690     2.766461E+05     ; C-H, prebuilt c3-h1
 1138    1140         1        0.109690     2.766461E+05     ; C-H, prebuilt c3-h1
 1138    1141         1        0.109690     2.766461E+05     ; C-H, prebuilt c3-h1
 1142    1144         1        0.140150     3.325443E+05     ; N-C, prebuilt c2-na
 1142    1207         1        0.140150     3.325443E+05     ; N-C, prebuilt c2-na
 1142    1233         1        0.146290     2.742194E+05     ; N-C, prebuilt c3-na
 1143    1144         1        0.140150     3.325443E+05     ; N-C, prebuilt c2-na
 1143    1145         1        0.138400     3.518744E+05     ; N-C, prebuilt ca-na
 1143    1206         1        0.140150     3.325443E+05     ; N-C, prebuilt c2-na
 1144    1181         1        0.138460     4.034213E+05     ; C-C, prebuilt c2-ca
 1145    1146         1        0.139840     3.858485E+05     ; C-C, prebuilt ca-ca
 1145    1150         1        0.139840     3.858485E+05     ; C-C, prebuilt ca-ca
 1146    1147         1        0.139840     3.858485E+05     ; C-C, prebuilt ca-ca
 1146    1212         1        0.108600     2.893654E+05     ; C-H, prebuilt ca-ha
 1147    1148         1        0.139840     3.858485E+05     ; C-C, prebuilt ca-ca
 1147    1213         1        0.108600     2.893654E+05     ; C-H, prebuilt ca-ha
 1148    1149         1        0.139840     3.858485E+05     ; C-C, prebuilt ca-ca
 1148    1151         1        0.141210     3.214986E+05     ; C-N, prebuilt ca-n
 1149    1150         1        0.139840     3.858485E+05     ; C-C, prebuilt ca-ca
 1149    1215         1        0.108600     2.893654E+05     ; C-H, prebuilt ca-ha
 1150    1214         1        0.108600     2.893654E+05     ; C-H, prebuilt ca-ha
 1151    1152         1        0.137890     3.578157E+05     ; N-C, prebuilt c-n
 1151    1155         1        0.137890     3.578157E+05     ; N-C, prebuilt c-n
 1152    1153         1        0.149060     2.894491E+05     ; C-C, prebuilt c-ca
 1152    1176         1        0.121830     5.336274E+05     ; C-O, prebuilt c-o
 1153    1154         1        0.139840     3.858485E+05     ; C-C, prebuilt ca-ca
 1153    1157         1        0.139840     3.858485E+05     ; C-C, prebuilt ca-ca
 1154    1155         1        0.149060     2.894491E+05     ; C-C, prebuilt c-ca
 1154    1160         1        0.139840     3.858485E+05     ; C-C, prebuilt ca-ca
 1155    1156         1        0.121830     5.336274E+05     ; C-O, prebuilt c-o
 1157    1158         1        0.139840     3.858485E+05     ; C-C, prebuilt ca-ca
 1157    1216         1        0.108600     2.893654E+05     ; C-H, prebuilt ca-ha
 1158    1159         1        0.139840     3.858485E+05     ; C-C, prebuilt ca-ca
 1158    1167         1        0.151560     2.686128E+05     ; C-C, prebuilt c3-ca
 1159    1160         1        0.139840     3.858485E+05     ; C-C, prebuilt ca-ca
 1159    1217         1        0.108600     2.893654E+05     ; C-H, prebuilt ca-ha
 1160    1218         1        0.108600     2.893654E+05     ; C-H, prebuilt ca-ha
 1161    1162         1        0.139840     3.858485E+05     ; C-C, prebuilt ca-ca
 1161    1164         1        0.139840     3.858485E+05     ; C-C, prebuilt ca-ca
 1161    1167         1        0.151560     2.686128E+05     ; C-C, prebuilt c3-ca
 1162    1163         1        0.139840     3.858485E+05     ; C-C, prebuilt ca-ca
 1162    1220         1        0.108600     2.893654E+05     ; C-H, prebuilt ca-ha
 1163    1165         1        0.139840     3.858485E+05     ; C-C, prebuilt ca-ca
 1163    1177         1        0.149060     2.894491E+05     ; C-C, prebuilt c-ca
 1164    1166         1        0.139840     3.858485E+05     ; C-C, prebuilt ca-ca
 1164    1219         1        0.108600     2.893654E+05     ; C-H, prebuilt ca-ha
 1165    1166         1        0.139840     3.858485E+05     ; C-C, prebuilt ca-ca
 1165    1179         1        0.149060     2.894491E+05     ; C-C, prebuilt c-ca
 1166    1221         1        0.108600     2.893654E+05     ; C-H, prebuilt ca-ha
 1167    1168         1        0.153750     2.517931E+05     ; C-C, prebuilt c3-c3
 1167    1172         1        0.153750     2.517931E+05     ; C-C, prebuilt c3-c3
 1168    1169         1        0.134970     2.986539E+05     ; C-F, prebuilt c3-f
 1168    1170         1        0.134970     2.986539E+05     ; C-F, prebuilt c3-f
 1168    1171         1        0.134970     2.986539E+05     ; C-F, prebuilt c3-f
 1172    1173         1        0.134970     2.986539E+05     ; C-F, prebuilt c3-f
 1172    1174         1        0.134970     2.986539E+05     ; C-F, prebuilt c3-f
 1172    1175         1        0.134970     2.986539E+05     ; C-F, prebuilt c3-f
 1177    1178         1        0.137890     3.578157E+05     ; C-N, prebuilt c-n
 1177    1222         1        0.121830     5.336274E+05     ; C-O, prebuilt c-o
 1178    1179         1        0.137890     3.578157E+05     ; N-C, prebuilt c-n
 1178    1294         1        0.141210     3.214986E+05     ; N-C, prebuilt ca-n
 1179    1180         1        0.121830     5.336274E+05     ; C-O, prebuilt c-o
 1181    1182         1        0.139840     3.858485E+05     ; C-C, prebuilt ca-ca
 1181    1183         1        0.139840     3.858485E+05     ; C-C, prebuilt ca-ca
 1182    1184         1        0.139840     3.858485E+05     ; C-C, prebuilt ca-ca
 1182    1223         1        0.108600     2.893654E+05     ; C-H, prebuilt ca-ha
 1183    1185         1        0.139840     3.858485E+05     ; C-C, prebuilt ca-ca
 1183    1225         1        0.108600     2.893654E+05     ; C-H, prebuilt ca-ha
 1184    1186         1        0.139840     3.858485E+05     ; C-C, prebuilt ca-ca
 1184    1224         1        0.108600     2.893654E+05     ; C-H, prebuilt ca-ha
 1185    1186         1        0.139840     3.858485E+05     ; C-C, prebuilt ca-ca
 1185    1231         1        0.108600     2.893654E+05     ; C-H, prebuilt ca-ha
 1186    1187         1        0.138460     4.034213E+05     ; C-C, prebuilt c2-ca
 1187    1188         1        0.140150     3.325443E+05     ; C-N, prebuilt c2-na
 1187    1189         1        0.140150     3.325443E+05     ; C-N, prebuilt c2-na
 1188    1190         1        0.140150     3.325443E+05     ; N-C, prebuilt c2-na
 1188    1196         1        0.138400     3.518744E+05     ; N-C, prebuilt ca-na
 1189    1191         1        0.140150     3.325443E+05     ; N-C, prebuilt c2-na
 1189    1192         1        0.146290     2.742194E+05     ; N-C, prebuilt c3-na
 1190    1191         1        0.133430     4.764739E+05     ; C-C, prebuilt c2-c2
 1190    1230         1        0.108680     2.883613E+05     ; C-H, prebuilt c2-h4
 1191    1202         1        0.150950     2.734662E+05     ; C-C, prebuilt c2-c3
 1192    1193         1        0.109690     2.766461E+05     ; C-H, prebuilt c3-h1
 1192    1194         1        0.109690     2.766461E+05     ; C-H, prebuilt c3-h1
 1192    1195         1        0.109690     2.766461E+05     ; C-H, prebuilt c3-h1
 1196    1197         1        0.139840     3.858485E+05     ; C-C, prebuilt ca-ca
 1196    1201         1        0.139840     3.858485E+05     ; C-C, prebuilt ca-ca
 1197    1198         1        0.139840     3.858485E+05     ; C-C, prebuilt ca-ca
 1197    1227         1        0.108600     2.893654E+05     ; C-H, prebuilt ca-ha
 1198    1199         1        0.139840     3.858485E+05     ; C-C, prebuilt ca-ca
 1198    1226         1        0.108600     2.893654E+05     ; C-H, prebuilt ca-ha
 1199    1200         1        0.139840     3.858485E+05     ; C-C, prebuilt ca-ca
 1200    1201         1        0.139840     3.858485E+05     ; C-C, prebuilt ca-ca
 1200    1228         1        0.108600     2.893654E+05     ; C-H, prebuilt ca-ha
 1201    1229         1        0.108600     2.893654E+05     ; C-H, prebuilt ca-ha
 1202    1203         1        0.134970     2.986539E+05     ; C-F, prebuilt c3-f
 1202    1204         1        0.134970     2.986539E+05     ; C-F, prebuilt c3-f
 1202    1205         1        0.134970     2.986539E+05     ; C-F, prebuilt c3-f
 1206    1207         1        0.133430     4.764739E+05     ; C-C, prebuilt c2-c2
 1206    1211         1        0.108680     2.883613E+05     ; C-H, prebuilt c2-h4
 1207    1208         1        0.150950     2.734662E+05     ; C-C, prebuilt c2-c3
 1208    1209         1        0.134970     2.986539E+05     ; C-F, prebuilt c3-f
 1208    1210         1        0.134970     2.986539E+05     ; C-F, prebuilt c3-f
 1208    1232         1        0.134970     2.986539E+05     ; C-F, prebuilt c3-f
 1233    1234         1        0.109690     2.766461E+05     ; C-H, prebuilt c3-h1
 1233    1235         1        0.109690     2.766461E+05     ; C-H, prebuilt c3-h1
 1233    1236         1        0.109690     2.766461E+05     ; C-H, prebuilt c3-h1
 1237    1239         1        0.140150     3.325443E+05     ; N-C, prebuilt c2-na
 1237    1302         1        0.140150     3.325443E+05     ; N-C, prebuilt c2-na
 1237    1328         1        0.146290     2.742194E+05     ; N-C, prebuilt c3-na
 1238    1239         1        0.140150     3.325443E+05     ; N-C, prebuilt c2-na
 1238    1240         1        0.138400     3.518744E+05     ; N-C, prebuilt ca-na
 1238    1301         1        0.140150     3.325443E+05     ; N-C, prebuilt c2-na
 1239    1276         1        0.138460     4.034213E+05     ; C-C, prebuilt c2-ca
 1240    1241         1        0.139840     3.858485E+05     ; C-C, prebuilt ca-ca
 1240    1245         1        0.139840     3.858485E+05     ; C-C, prebuilt ca-ca
 1241    1242         1        0.139840     3.858485E+05     ; C-C, prebuilt ca-ca
 1241    1307         1        0.108600     2.893654E+05     ; C-H, prebuilt ca-ha
 1242    1243         1        0.139840     3.858485E+05     ; C-C, prebuilt ca-ca
 1242    1308         1        0.108600     2.893654E+05     ; C-H, prebuilt ca-ha
 1243    1244         1        0.139840     3.858485E+05     ; C-C, prebuilt ca-ca
 1243    1246         1        0.141210     3.214986E+05     ; C-N, prebuilt ca-n
 1244    1245         1        0.139840     3.858485E+05     ; C-C, prebuilt ca-ca
 1244    1310         1        0.108600     2.893654E+05     ; C-H, prebuilt ca-ha
 1245    1309         1        0.108600     2.893654E+05     ; C-H, prebuilt ca-ha
 1246    1247         1        0.137890     3.578157E+05     ; N-C, prebuilt c-n
 1246    1250         1        0.137890     3.578157E+05     ; N-C, prebuilt c-n
 1247    1248         1        0.149060     2.894491E+05     ; C-C, prebuilt c-ca
 1247    1271         1        0.121830     5.336274E+05     ; C-O, prebuilt c-o
 1248    1249         1        0.139840     3.858485E+05     ; C-C, prebuilt ca-ca
 1248    1252         1        0.139840     3.858485E+05     ; C-C, prebuilt ca-ca
 1249    1250         1        0.149060     2.894491E+05     ; C-C, prebuilt c-ca
 1249    1255         1        0.139840     3.858485E+05     ; C-C, prebuilt ca-ca
 1250    1251         1        0.121830     5.336274E+05     ; C-O, prebuilt c-o
 1252    1253         1        0.139840     3.858485E+05     ; C-C, prebuilt ca-ca
 1252    1311         1        0.108600     2.893654E+05     ; C-H, prebuilt ca-ha
 1253    1254         1        0.139840     3.858485E+05     ; C-C, prebuilt ca-ca
 1253    1262         1        0.151560     2.686128E+05     ; C-C, prebuilt c3-ca
 1254    1255         1        0.139840     3.858485E+05     ; C-C, prebuilt ca-ca
 1254    1312         1        0.108600     2.893654E+05     ; C-H, prebuilt ca-ha
 1255    1313         1        0.108600     2.893654E+05     ; C-H, prebuilt ca-ha
 1256    1257         1        0.139840     3.858485E+05     ; C-C, prebuilt ca-ca
 1256    1259         1        0.139840     3.858485E+05     ; C-C, prebuilt ca-ca
 1256    1262         1        0.151560     2.686128E+05     ; C-C, prebuilt c3-ca
 1257    1258         1        0.139840     3.858485E+05     ; C-C, prebuilt ca-ca
 1257    1315         1        0.108600     2.893654E+05     ; C-H, prebuilt ca-ha
 1258    1260         1        0.139840     3.858485E+05     ; C-C, prebuilt ca-ca
 1258    1272         1        0.149060     2.894491E+05     ; C-C, prebuilt c-ca
 1259    1261         1        0.139840     3.858485E+05     ; C-C, prebuilt ca-ca
 1259    1314         1        0.108600     2.893654E+05     ; C-H, prebuilt ca-ha
 1260    1261         1        0.139840     3.858485E+05     ; C-C, prebuilt ca-ca
 1260    1274         1        0.149060     2.894491E+05     ; C-C, prebuilt c-ca
 1261    1316         1        0.108600     2.893654E+05     ; C-H, prebuilt ca-ha
 1262    1263         1        0.153750     2.517931E+05     ; C-C, prebuilt c3-c3
 1262    1267         1        0.153750     2.517931E+05     ; C-C, prebuilt c3-c3
 1263    1264         1        0.134970     2.986539E+05     ; C-F, prebuilt c3-f
 1263    1265         1        0.134970     2.986539E+05     ; C-F, prebuilt c3-f
 1263    1266         1        0.134970     2.986539E+05     ; C-F, prebuilt c3-f
 1267    1268         1        0.134970     2.986539E+05     ; C-F, prebuilt c3-f
 1267    1269         1        0.134970     2.986539E+05     ; C-F, prebuilt c3-f
 1267    1270         1        0.134970     2.986539E+05     ; C-F, prebuilt c3-f
 1272    1273         1        0.137890     3.578157E+05     ; C-N, prebuilt c-n
 1272    1317         1        0.121830     5.336274E+05     ; C-O, prebuilt c-o
 1273    1274         1        0.137890     3.578157E+05     ; N-C, prebuilt c-n
 1273    1389         1        0.141210     3.214986E+05     ; N-C, prebuilt ca-n
 1274    1275         1        0.121830     5.336274E+05     ; C-O, prebuilt c-o
 1276    1277         1        0.139840     3.858485E+05     ; C-C, prebuilt ca-ca
 1276    1278         1        0.139840     3.858485E+05     ; C-C, prebuilt ca-ca
 1277    1279         1        0.139840     3.858485E+05     ; C-C, prebuilt ca-ca
 1277    1318         1        0.108600     2.893654E+05     ; C-H, prebuilt ca-ha
 1278    1280         1        0.139840     3.858485E+05     ; C-C, prebuilt ca-ca
 1278    1320         1        0.108600     2.893654E+05     ; C-H, prebuilt ca-ha
 1279    1281         1        0.139840     3.858485E+05     ; C-C, prebuilt ca-ca
 1279    1319         1        0.108600     2.893654E+05     ; C-H, prebuilt ca-ha
 1280    1281         1        0.139840     3.858485E+05     ; C-C, prebuilt ca-ca
 1280    1326         1        0.108600     2.893654E+05     ; C-H, prebuilt ca-ha
 1281    1282         1        0.138460     4.034213E+05     ; C-C, prebuilt c2-ca
 1282    1283         1        0.140150     3.325443E+05     ; C-N, prebuilt c2-na
 1282    1284         1        0.140150     3.325443E+05     ; C-N, prebuilt c2-na
 1283    1285         1        0.140150     3.325443E+05     ; N-C, prebuilt c2-na
 1283    1291         1        0.138400     3.518744E+05     ; N-C, prebuilt ca-na
 1284    1286         1        0.140150     3.325443E+05     ; N-C, prebuilt c2-na
 1284    1287         1        0.146290     2.742194E+05     ; N-C, prebuilt c3-na
 1285    1286         1        0.133430     4.764739E+05     ; C-C, prebuilt c2-c2
 1285    1325         1        0.108680     2.883613E+05     ; C-H, prebuilt c2-h4
 1286    1297         1        0.150950     2.734662E+05     ; C-C, prebuilt c2-c3
 1287    1288         1        0.109690     2.766461E+05     ; C-H, prebuilt c3-h1
 1287    1289         1        0.109690     2.766461E+05     ; C-H, prebuilt c3-h1
 1287    1290         1        0.109690     2.766461E+05     ; C-H, prebuilt c3-h1
 1291    1292         1        0.139840     3.858485E+05     ; C-C, prebuilt ca-ca
 1291    1296         1        0.139840     3.858485E+05     ; C-C, prebuilt ca-ca
 1292    1293         1        0.139840     3.858485E+05     ; C-C, prebuilt ca-ca
 1292    1322         1        0.108600     2.893654E+05     ; C-H, prebuilt ca-ha
 1293    1294         1        0.139840     3.858485E+05     ; C-C, prebuilt ca-ca
 1293    1321         1        0.108600     2.893654E+05     ; C-H, prebuilt ca-ha
 1294    1295         1        0.139840     3.858485E+05     ; C-C, prebuilt ca-ca
 1295    1296         1        0.139840     3.858485E+05     ; C-C, prebuilt ca-ca
 1295    1323         1        0.108600     2.893654E+05     ; C-H, prebuilt ca-ha
 1296    1324         1        0.108600     2.893654E+05     ; C-H, prebuilt ca-ha
 1297    1298         1        0.134970     2.986539E+05     ; C-F, prebuilt c3-f
 1297    1299         1        0.134970     2.986539E+05     ; C-F, prebuilt c3-f
 1297    1300         1        0.134970     2.986539E+05     ; C-F, prebuilt c3-f
 1301    1302         1        0.133430     4.764739E+05     ; C-C, prebuilt c2-c2
 1301    1306         1        0.108680     2.883613E+05     ; C-H, prebuilt c2-h4
 1302    1303         1        0.150950     2.734662E+05     ; C-C, prebuilt c2-c3
 1303    1304         1        0.134970     2.986539E+05     ; C-F, prebuilt c3-f
 1303    1305         1        0.134970     2.986539E+05     ; C-F, prebuilt c3-f
 1303    1327         1        0.134970     2.986539E+05     ; C-F, prebuilt c3-f
 1328    1329         1        0.109690     2.766461E+05     ; C-H, prebuilt c3-h1
 1328    1330         1        0.109690     2.766461E+05     ; C-H, prebuilt c3-h1
 1328    1331         1        0.109690     2.766461E+05     ; C-H, prebuilt c3-h1
 1332    1334         1        0.140150     3.325443E+05     ; N-C, prebuilt c2-na
 1332    1397         1        0.140150     3.325443E+05     ; N-C, prebuilt c2-na
 1332    1423         1        0.146290     2.742194E+05     ; N-C, prebuilt c3-na
 1333    1334         1        0.140150     3.325443E+05     ; N-C, prebuilt c2-na
 1333    1335         1        0.138400     3.518744E+05     ; N-C, prebuilt ca-na
 1333    1396         1        0.140150     3.325443E+05     ; N-C, prebuilt c2-na
 1334    1371         1        0.138460     4.034213E+05     ; C-C, prebuilt c2-ca
 1335    1336         1        0.139840     3.858485E+05     ; C-C, prebuilt ca-ca
 1335    1340         1        0.139840     3.858485E+05     ; C-C, prebuilt ca-ca
 1336    1337         1        0.139840     3.858485E+05     ; C-C, prebuilt ca-ca
 1336    1402         1        0.108600     2.893654E+05     ; C-H, prebuilt ca-ha
 1337    1338         1        0.139840     3.858485E+05     ; C-C, prebuilt ca-ca
 1337    1403         1        0.108600     2.893654E+05     ; C-H, prebuilt ca-ha
 1338    1339         1        0.139840     3.858485E+05     ; C-C, prebuilt ca-ca
 1338    1341         1        0.141210     3.214986E+05     ; C-N, prebuilt ca-n
 1339    1340         1        0.139840     3.858485E+05     ; C-C, prebuilt ca-ca
 1339    1405         1        0.108600     2.893654E+05     ; C-H, prebuilt ca-ha
 1340    1404         1        0.108600     2.893654E+05     ; C-H, prebuilt ca-ha
 1341    1342         1        0.137890     3.578157E+05     ; N-C, prebuilt c-n
 1341    1345         1        0.137890     3.578157E+05     ; N-C, prebuilt c-n
 1342    1343         1        0.149060     2.894491E+05     ; C-C, prebuilt c-ca
 1342    1366         1        0.121830     5.336274E+05     ; C-O, prebuilt c-o
 1343    1344         1        0.139840     3.858485E+05     ; C-C, prebuilt ca-ca
 1343    1347         1        0.139840     3.858485E+05     ; C-C, prebuilt ca-ca
 1344    1345         1        0.149060     2.894491E+05     ; C-C, prebuilt c-ca
 1344    1350         1        0.139840     3.858485E+05     ; C-C, prebuilt ca-ca
 1345    1346         1        0.121830     5.336274E+05     ; C-O, prebuilt c-o
 1347    1348         1        0.139840     3.858485E+05     ; C-C, prebuilt ca-ca
 1347    1406         1        0.108600     2.893654E+05     ; C-H, prebuilt ca-ha
 1348    1349         1        0.139840     3.858485E+05     ; C-C, prebuilt ca-ca
 1348    1357         1        0.151560     2.686128E+05     ; C-C, prebuilt c3-ca
 1349    1350         1        0.139840     3.858485E+05     ; C-C, prebuilt ca-ca
 1349    1407         1        0.108600     2.893654E+05     ; C-H, prebuilt ca-ha
 1350    1408         1        0.108600     2.893654E+05     ; C-H, prebuilt ca-ha
 1351    1352         1        0.139840     3.858485E+05     ; C-C, prebuilt ca-ca
 1351    1354         1        0.139840     3.858485E+05     ; C-C, prebuilt ca-ca
 1351    1357         1        0.151560     2.686128E+05     ; C-C, prebuilt c3-ca
 1352    1353         1        0.139840     3.858485E+05     ; C-C, prebuilt ca-ca
 1352    1410         1        0.108600     2.893654E+05     ; C-H, prebuilt ca-ha
 1353    1355         1        0.139840     3.858485E+05     ; C-C, prebuilt ca-ca
 1353    1367         1        0.149060     2.894491E+05     ; C-C, prebuilt c-ca
 1354    1356         1        0.139840     3.858485E+05     ; C-C, prebuilt ca-ca
 1354    1409         1        0.108600     2.893654E+05     ; C-H, prebuilt ca-ha
 1355    1356         1        0.139840     3.858485E+05     ; C-C, prebuilt ca-ca
 1355    1369         1        0.149060     2.894491E+05     ; C-C, prebuilt c-ca
 1356    1411         1        0.108600     2.893654E+05     ; C-H, prebuilt ca-ha
 1357    1358         1        0.153750     2.517931E+05     ; C-C, prebuilt c3-c3
 1357    1362         1        0.153750     2.517931E+05     ; C-C, prebuilt c3-c3
 1358    1359         1        0.134970     2.986539E+05     ; C-F, prebuilt c3-f
 1358    1360         1        0.134970     2.986539E+05     ; C-F, prebuilt c3-f
 1358    1361         1        0.134970     2.986539E+05     ; C-F, prebuilt c3-f
 1362    1363         1        0.134970     2.986539E+05     ; C-F, prebuilt c3-f
 1362    1364         1        0.134970     2.986539E+05     ; C-F, prebuilt c3-f
 1362    1365         1        0.134970     2.986539E+05     ; C-F, prebuilt c3-f
 1367    1368         1        0.137890     3.578157E+05     ; C-N, prebuilt c-n
 1367    1412         1        0.121830     5.336274E+05     ; C-O, prebuilt c-o
 1368    1369         1        0.137890     3.578157E+05     ; N-C, prebuilt c-n
 1368    1484         1        0.141210     3.214986E+05     ; N-C, prebuilt ca-n
 1369    1370         1        0.121830     5.336274E+05     ; C-O, prebuilt c-o
 1371    1372         1        0.139840     3.858485E+05     ; C-C, prebuilt ca-ca
 1371    1373         1        0.139840     3.858485E+05     ; C-C, prebuilt ca-ca
 1372    1374         1        0.139840     3.858485E+05     ; C-C, prebuilt ca-ca
 1372    1413         1        0.108600     2.893654E+05     ; C-H, prebuilt ca-ha
 1373    1375         1        0.139840     3.858485E+05     ; C-C, prebuilt ca-ca
 1373    1415         1        0.108600     2.893654E+05     ; C-H, prebuilt ca-ha
 1374    1376         1        0.139840     3.858485E+05     ; C-C, prebuilt ca-ca
 1374    1414         1        0.108600     2.893654E+05     ; C-H, prebuilt ca-ha
 1375    1376         1        0.139840     3.858485E+05     ; C-C, prebuilt ca-ca
 1375    1421         1        0.108600     2.893654E+05     ; C-H, prebuilt ca-ha
 1376    1377         1        0.138460     4.034213E+05     ; C-C, prebuilt c2-ca
 1377    1378         1        0.140150     3.325443E+05     ; C-N, prebuilt c2-na
 1377    1379         1        0.140150     3.325443E+05     ; C-N, prebuilt c2-na
 1378    1380         1        0.140150     3.325443E+05     ; N-C, prebuilt c2-na
 1378    1386         1        0.138400     3.518744E+05     ; N-C, prebuilt ca-na
 1379    1381         1        0.140150     3.325443E+05     ; N-C, prebuilt c2-na
 1379    1382         1        0.146290     2.742194E+05     ; N-C, prebuilt c3-na
 1380    1381         1        0.133430     4.764739E+05     ; C-C, prebuilt c2-c2
 1380    1420         1        0.108680     2.883613E+05     ; C-H, prebuilt c2-h4
 1381    1392         1        0.150950     2.734662E+05     ; C-C, prebuilt c2-c3
 1382    1383         1        0.109690     2.766461E+05     ; C-H, prebuilt c3-h1
 1382    1384         1        0.109690     2.766461E+05     ; C-H, prebuilt c3-h1
 1382    1385         1        0.109690     2.766461E+05     ; C-H, prebuilt c3-h1
 1386    1387         1        0.139840     3.858485E+05     ; C-C, prebuilt ca-ca
 1386    1391         1        0.139840     3.858485E+05     ; C-C, prebuilt ca-ca
 1387    1388         1        0.139840     3.858485E+05     ; C-C, prebuilt ca-ca
 1387    1417         1        0.108600     2.893654E+05     ; C-H, prebuilt ca-ha
 1388    1389         1        0.139840     3.858485E+05     ; C-C, prebuilt ca-ca
 1388    1416         1        0.108600     2.893654E+05     ; C-H, prebuilt ca-ha
 1389    1390         1        0.139840     3.858485E+05     ; C-C, prebuilt ca-ca
 1390    1391         1        0.139840     3.858485E+05     ; C-C, prebuilt ca-ca
 1390    1418         1        0.108600     2.893654E+05     ; C-H, prebuilt ca-ha
 1391    1419         1        0.108600     2.893654E+05     ; C-H, prebuilt ca-ha
 1392    1393         1        0.134970     2.986539E+05     ; C-F, prebuilt c3-f
 1392    1394         1        0.134970     2.986539E+05     ; C-F, prebuilt c3-f
 1392    1395         1        0.134970     2.986539E+05     ; C-F, prebuilt c3-f
 1396    1397         1        0.133430     4.764739E+05     ; C-C, prebuilt c2-c2
 1396    1401         1        0.108680     2.883613E+05     ; C-H, prebuilt c2-h4
 1397    1398         1        0.150950     2.734662E+05     ; C-C, prebuilt c2-c3
 1398    1399         1        0.134970     2.986539E+05     ; C-F, prebuilt c3-f
 1398    1400         1        0.134970     2.986539E+05     ; C-F, prebuilt c3-f
 1398    1422         1        0.134970     2.986539E+05     ; C-F, prebuilt c3-f
 1423    1424         1        0.109690     2.766461E+05     ; C-H, prebuilt c3-h1
 1423    1425         1        0.109690     2.766461E+05     ; C-H, prebuilt c3-h1
 1423    1426         1        0.109690     2.766461E+05     ; C-H, prebuilt c3-h1
 1427    1429         1        0.140150     3.325443E+05     ; N-C, prebuilt c2-na
 1427    1492         1        0.140150     3.325443E+05     ; N-C, prebuilt c2-na
 1427    1518         1        0.146290     2.742194E+05     ; N-C, prebuilt c3-na
 1428    1429         1        0.140150     3.325443E+05     ; N-C, prebuilt c2-na
 1428    1430         1        0.138400     3.518744E+05     ; N-C, prebuilt ca-na
 1428    1491         1        0.140150     3.325443E+05     ; N-C, prebuilt c2-na
 1429    1466         1        0.138460     4.034213E+05     ; C-C, prebuilt c2-ca
 1430    1431         1        0.139840     3.858485E+05     ; C-C, prebuilt ca-ca
 1430    1435         1        0.139840     3.858485E+05     ; C-C, prebuilt ca-ca
 1431    1432         1        0.139840     3.858485E+05     ; C-C, prebuilt ca-ca
 1431    1497         1        0.108600     2.893654E+05     ; C-H, prebuilt ca-ha
 1432    1433         1        0.139840     3.858485E+05     ; C-C, prebuilt ca-ca
 1432    1498         1        0.108600     2.893654E+05     ; C-H, prebuilt ca-ha
 1433    1434         1        0.139840     3.858485E+05     ; C-C, prebuilt ca-ca
 1433    1436         1        0.141210     3.214986E+05     ; C-N, prebuilt ca-n
 1434    1435         1        0.139840     3.858485E+05     ; C-C, prebuilt ca-ca
 1434    1500         1        0.108600     2.893654E+05     ; C-H, prebuilt ca-ha
 1435    1499         1        0.108600     2.893654E+05     ; C-H, prebuilt ca-ha
 1436    1437         1        0.137890     3.578157E+05     ; N-C, prebuilt c-n
 1436    1440         1        0.137890     3.578157E+05     ; N-C, prebuilt c-n
 1437    1438         1        0.149060     2.894491E+05     ; C-C, prebuilt c-ca
 1437    1461         1        0.121830     5.336274E+05     ; C-O, prebuilt c-o
 1438    1439         1        0.139840     3.858485E+05     ; C-C, prebuilt ca-ca
 1438    1442         1        0.139840     3.858485E+05     ; C-C, prebuilt ca-ca
 1439    1440         1        0.149060     2.894491E+05     ; C-C, prebuilt c-ca
 1439    1445         1        0.139840     3.858485E+05     ; C-C, prebuilt ca-ca
 1440    1441         1        0.121830     5.336274E+05     ; C-O, prebuilt c-o
 1442    1443         1        0.139840     3.858485E+05     ; C-C, prebuilt ca-ca
 1442    1501         1        0.108600     2.893654E+05     ; C-H, prebuilt ca-ha
 1443    1444         1        0.139840     3.858485E+05     ; C-C, prebuilt ca-ca
 1443    1452         1        0.151560     2.686128E+05     ; C-C, prebuilt c3-ca
 1444    1445         1        0.139840     3.858485E+05     ; C-C, prebuilt ca-ca
 1444    1502         1        0.108600     2.893654E+05     ; C-H, prebuilt ca-ha
 1445    1503         1        0.108600     2.893654E+05     ; C-H, prebuilt ca-ha
 1446    1447         1        0.139840     3.858485E+05     ; C-C, prebuilt ca-ca
 1446    1449         1        0.139840     3.858485E+05     ; C-C, prebuilt ca-ca
 1446    1452         1        0.151560     2.686128E+05     ; C-C, prebuilt c3-ca
 1447    1448         1        0.139840     3.858485E+05     ; C-C, prebuilt ca-ca
 1447    1505         1        0.108600     2.893654E+05     ; C-H, prebuilt ca-ha
 1448    1450         1        0.139840     3.858485E+05     ; C-C, prebuilt ca-ca
 1448    1462         1        0.149060     2.894491E+05     ; C-C, prebuilt c-ca
 1449    1451         1        0.139840     3.858485E+05     ; C-C, prebuilt ca-ca
 1449    1504         1        0.108600     2.893654E+05     ; C-H, prebuilt ca-ha
 1450    1451         1        0.139840     3.858485E+05     ; C-C, prebuilt ca-ca
 1450    1464         1        0.149060     2.894491E+05     ; C-C, prebuilt c-ca
 1451    1506         1        0.108600     2.893654E+05     ; C-H, prebuilt ca-ha
 1452    1453         1        0.153750     2.517931E+05     ; C-C, prebuilt c3-c3
 1452    1457         1        0.153750     2.517931E+05     ; C-C, prebuilt c3-c3
 1453    1454         1        0.134970     2.986539E+05     ; C-F, prebuilt c3-f
 1453    1455         1        0.134970     2.986539E+05     ; C-F, prebuilt c3-f
 1453    1456         1        0.134970     2.986539E+05     ; C-F, prebuilt c3-f
 1457    1458         1        0.134970     2.986539E+05     ; C-F, prebuilt c3-f
 1457    1459         1        0.134970     2.986539E+05     ; C-F, prebuilt c3-f
 1457    1460         1        0.134970     2.986539E+05     ; C-F, prebuilt c3-f
 1462    1463         1        0.137890     3.578157E+05     ; C-N, prebuilt c-n
 1462    1507         1        0.121830     5.336274E+05     ; C-O, prebuilt c-o
 1463    1464         1        0.137890     3.578157E+05     ; N-C, prebuilt c-n
 1463    1579         1        0.141210     3.214986E+05     ; N-C, prebuilt ca-n
 1464    1465         1        0.121830     5.336274E+05     ; C-O, prebuilt c-o
 1466    1467         1        0.139840     3.858485E+05     ; C-C, prebuilt ca-ca
 1466    1468         1        0.139840     3.858485E+05     ; C-C, prebuilt ca-ca
 1467    1469         1        0.139840     3.858485E+05     ; C-C, prebuilt ca-ca
 1467    1508         1        0.108600     2.893654E+05     ; C-H, prebuilt ca-ha
 1468    1470         1        0.139840     3.858485E+05     ; C-C, prebuilt ca-ca
 1468    1510         1        0.108600     2.893654E+05     ; C-H, prebuilt ca-ha
 1469    1471         1        0.139840     3.858485E+05     ; C-C, prebuilt ca-ca
 1469    1509         1        0.108600     2.893654E+05     ; C-H, prebuilt ca-ha
 1470    1471         1        0.139840     3.858485E+05     ; C-C, prebuilt ca-ca
 1470    1516         1        0.108600     2.893654E+05     ; C-H, prebuilt ca-ha
 1471    1472         1        0.138460     4.034213E+05     ; C-C, prebuilt c2-ca
 1472    1473         1        0.140150     3.325443E+05     ; C-N, prebuilt c2-na
 1472    1474         1        0.140150     3.325443E+05     ; C-N, prebuilt c2-na
 1473    1475         1        0.140150     3.325443E+05     ; N-C, prebuilt c2-na
 1473    1481         1        0.138400     3.518744E+05     ; N-C, prebuilt ca-na
 1474    1476         1        0.140150     3.325443E+05     ; N-C, prebuilt c2-na
 1474    1477         1        0.146290     2.742194E+05     ; N-C, prebuilt c3-na
 1475    1476         1        0.133430     4.764739E+05     ; C-C, prebuilt c2-c2
 1475    1515         1        0.108680     2.883613E+05     ; C-H, prebuilt c2-h4
 1476    1487         1        0.150950     2.734662E+05     ; C-C, prebuilt c2-c3
 1477    1478         1        0.109690     2.766461E+05     ; C-H, prebuilt c3-h1
 1477    1479         1        0.109690     2.766461E+05     ; C-H, prebuilt c3-h1
 1477    1480         1        0.109690     2.766461E+05     ; C-H, prebuilt c3-h1
 1481    1482         1        0.139840     3.858485E+05     ; C-C, prebuilt ca-ca
 1481    1486         1        0.139840     3.858485E+05     ; C-C, prebuilt ca-ca
 1482    1483         1        0.139840     3.858485E+05     ; C-C, prebuilt ca-ca
 1482    1512         1        0.108600     2.893654E+05     ; C-H, prebuilt ca-ha
 1483    1484         1        0.139840     3.858485E+05     ; C-C, prebuilt ca-ca
 1483    1511         1        0.108600     2.893654E+05     ; C-H, prebuilt ca-ha
 1484    1485         1        0.139840     3.858485E+05     ; C-C, prebuilt ca-ca
 1485    1486         1        0.139840     3.858485E+05     ; C-C, prebuilt ca-ca
 1485    1513         1        0.108600     2.893654E+05     ; C-H, prebuilt ca-ha
 1486    1514         1        0.108600     2.893654E+05     ; C-H, prebuilt ca-ha
 1487    1488         1        0.134970     2.986539E+05     ; C-F, prebuilt c3-f
 1487    1489         1        0.134970     2.986539E+05     ; C-F, prebuilt c3-f
 1487    1490         1        0.134970     2.986539E+05     ; C-F, prebuilt c3-f
 1491    1492         1        0.133430     4.764739E+05     ; C-C, prebuilt c2-c2
 1491    1496         1        0.108680     2.883613E+05     ; C-H, prebuilt c2-h4
 1492    1493         1        0.150950     2.734662E+05     ; C-C, prebuilt c2-c3
 1493    1494         1        0.134970     2.986539E+05     ; C-F, prebuilt c3-f
 1493    1495         1        0.134970     2.986539E+05     ; C-F, prebuilt c3-f
 1493    1517         1        0.134970     2.986539E+05     ; C-F, prebuilt c3-f
 1518    1519         1        0.109690     2.766461E+05     ; C-H, prebuilt c3-h1
 1518    1520         1        0.109690     2.766461E+05     ; C-H, prebuilt c3-h1
 1518    1521         1        0.109690     2.766461E+05     ; C-H, prebuilt c3-h1
 1522    1524         1        0.140150     3.325443E+05     ; N-C, prebuilt c2-na
 1522    1587         1        0.140150     3.325443E+05     ; N-C, prebuilt c2-na
 1522    1613         1        0.146290     2.742194E+05     ; N-C, prebuilt c3-na
 1523    1524         1        0.140150     3.325443E+05     ; N-C, prebuilt c2-na
 1523    1525         1        0.138400     3.518744E+05     ; N-C, prebuilt ca-na
 1523    1586         1        0.140150     3.325443E+05     ; N-C, prebuilt c2-na
 1524    1561         1        0.138460     4.034213E+05     ; C-C, prebuilt c2-ca
 1525    1526         1        0.139840     3.858485E+05     ; C-C, prebuilt ca-ca
 1525    1530         1        0.139840     3.858485E+05     ; C-C, prebuilt ca-ca
 1526    1527         1        0.139840     3.858485E+05     ; C-C, prebuilt ca-ca
 1526    1592         1        0.108600     2.893654E+05     ; C-H, prebuilt ca-ha
 1527    1528         1        0.139840     3.858485E+05     ; C-C, prebuilt ca-ca
 1527    1593         1        0.108600     2.893654E+05     ; C-H, prebuilt ca-ha
 1528    1529         1        0.139840     3.858485E+05     ; C-C, prebuilt ca-ca
 1528    1531         1        0.141210     3.214986E+05     ; C-N, prebuilt ca-n
 1529    1530         1        0.139840     3.858485E+05     ; C-C, prebuilt ca-ca
 1529    1595         1        0.108600     2.893654E+05     ; C-H, prebuilt ca-ha
 1530    1594         1        0.108600     2.893654E+05     ; C-H, prebuilt ca-ha
 1531    1532         1        0.137890     3.578157E+05     ; N-C, prebuilt c-n
 1531    1535         1        0.137890     3.578157E+05     ; N-C, prebuilt c-n
 1532    1533         1        0.149060     2.894491E+05     ; C-C, prebuilt c-ca
 1532    1556         1        0.121830     5.336274E+05     ; C-O, prebuilt c-o
 1533    1534         1        0.139840     3.858485E+05     ; C-C, prebuilt ca-ca
 1533    1537         1        0.139840     3.858485E+05     ; C-C, prebuilt ca-ca
 1534    1535         1        0.149060     2.894491E+05     ; C-C, prebuilt c-ca
 1534    1540         1        0.139840     3.858485E+05     ; C-C, prebuilt ca-ca
 1535    1536         1        0.121830     5.336274E+05     ; C-O, prebuilt c-o
 1537    1538         1        0.139840     3.858485E+05     ; C-C, prebuilt ca-ca
 1537    1596         1        0.108600     2.893654E+05     ; C-H, prebuilt ca-ha
 1538    1539         1        0.139840     3.858485E+05     ; C-C, prebuilt ca-ca
 1538    1547         1        0.151560     2.686128E+05     ; C-C, prebuilt c3-ca
 1539    1540         1        0.139840     3.858485E+05     ; C-C, prebuilt ca-ca
 1539    1597         1        0.108600     2.893654E+05     ; C-H, prebuilt ca-ha
 1540    1598         1        0.108600     2.893654E+05     ; C-H, prebuilt ca-ha
 1541    1542         1        0.139840     3.858485E+05     ; C-C, prebuilt ca-ca
 1541    1544         1        0.139840     3.858485E+05     ; C-C, prebuilt ca-ca
 1541    1547         1        0.151560     2.686128E+05     ; C-C, prebuilt c3-ca
 1542    1543         1        0.139840     3.858485E+05     ; C-C, prebuilt ca-ca
 1542    1600         1        0.108600     2.893654E+05     ; C-H, prebuilt ca-ha
 1543    1545         1        0.139840     3.858485E+05     ; C-C, prebuilt ca-ca
 1543    1557         1        0.149060     2.894491E+05     ; C-C, prebuilt c-ca
 1544    1546         1        0.139840     3.858485E+05     ; C-C, prebuilt ca-ca
 1544    1599         1        0.108600     2.893654E+05     ; C-H, prebuilt ca-ha
 1545    1546         1        0.139840     3.858485E+05     ; C-C, prebuilt ca-ca
 1545    1559         1        0.149060     2.894491E+05     ; C-C, prebuilt c-ca
 1546    1601         1        0.108600     2.893654E+05     ; C-H, prebuilt ca-ha
 1547    1548         1        0.153750     2.517931E+05     ; C-C, prebuilt c3-c3
 1547    1552         1        0.153750     2.517931E+05     ; C-C, prebuilt c3-c3
 1548    1549         1        0.134970     2.986539E+05     ; C-F, prebuilt c3-f
 1548    1550         1        0.134970     2.986539E+05     ; C-F, prebuilt c3-f
 1548    1551         1        0.134970     2.986539E+05     ; C-F, prebuilt c3-f
 1552    1553         1        0.134970     2.986539E+05     ; C-F, prebuilt c3-f
 1552    1554         1        0.134970     2.986539E+05     ; C-F, prebuilt c3-f
 1552    1555         1        0.134970     2.986539E+05     ; C-F, prebuilt c3-f
 1557    1558         1        0.137890     3.578157E+05     ; C-N, prebuilt c-n
 1557    1602         1        0.121830     5.336274E+05     ; C-O, prebuilt c-o
 1558    1559         1        0.137890     3.578157E+05     ; N-C, prebuilt c-n
 1558    1674         1        0.141210     3.214986E+05     ; N-C, prebuilt ca-n
 1559    1560         1        0.121830     5.336274E+05     ; C-O, prebuilt c-o
 1561    1562         1        0.139840     3.858485E+05     ; C-C, prebuilt ca-ca
 1561    1563         1        0.139840     3.858485E+05     ; C-C, prebuilt ca-ca
 1562    1564         1        0.139840     3.858485E+05     ; C-C, prebuilt ca-ca
 1562    1603         1        0.108600     2.893654E+05     ; C-H, prebuilt ca-ha
 1563    1565         1        0.139840     3.858485E+05     ; C-C, prebuilt ca-ca
 1563    1605         1        0.108600     2.893654E+05     ; C-H, prebuilt ca-ha
 1564    1566         1        0.139840     3.858485E+05     ; C-C, prebuilt ca-ca
 1564    1604         1        0.108600     2.893654E+05     ; C-H, prebuilt ca-ha
 1565    1566         1        0.139840     3.858485E+05     ; C-C, prebuilt ca-ca
 1565    1611         1        0.108600     2.893654E+05     ; C-H, prebuilt ca-ha
 1566    1567         1        0.138460     4.034213E+05     ; C-C, prebuilt c2-ca
 1567    1568         1        0.140150     3.325443E+05     ; C-N, prebuilt c2-na
 1567    1569         1        0.140150     3.325443E+05     ; C-N, prebuilt c2-na
 1568    1570         1        0.140150     3.325443E+05     ; N-C, prebuilt c2-na
 1568    1576         1        0.138400     3.518744E+05     ; N-C, prebuilt ca-na
 1569    1571         1        0.140150     3.325443E+05     ; N-C, prebuilt c2-na
 1569    1572         1        0.146290     2.742194E+05     ; N-C, prebuilt c3-na
 1570    1571         1        0.133430     4.764739E+05     ; C-C, prebuilt c2-c2
 1570    1610         1        0.108680     2.883613E+05     ; C-H, prebuilt c2-h4
 1571    1582         1        0.150950     2.734662E+05     ; C-C, prebuilt c2-c3
 1572    1573         1        0.109690     2.766461E+05     ; C-H, prebuilt c3-h1
 1572    1574         1        0.109690     2.766461E+05     ; C-H, prebuilt c3-h1
 1572    1575         1        0.109690     2.766461E+05     ; C-H, prebuilt c3-h1
 1576    1577         1        0.139840     3.858485E+05     ; C-C, prebuilt ca-ca
 1576    1581         1        0.139840     3.858485E+05     ; C-C, prebuilt ca-ca
 1577    1578         1        0.139840     3.858485E+05     ; C-C, prebuilt ca-ca
 1577    1607         1        0.108600     2.893654E+05     ; C-H, prebuilt ca-ha
 1578    1579         1        0.139840     3.858485E+05     ; C-C, prebuilt ca-ca
 1578    1606         1        0.108600     2.893654E+05     ; C-H, prebuilt ca-ha
 1579    1580         1        0.139840     3.858485E+05     ; C-C, prebuilt ca-ca
 1580    1581         1        0.139840     3.858485E+05     ; C-C, prebuilt ca-ca
 1580    1608         1        0.108600     2.893654E+05     ; C-H, prebuilt ca-ha
 1581    1609         1        0.108600     2.893654E+05     ; C-H, prebuilt ca-ha
 1582    1583         1        0.134970     2.986539E+05     ; C-F, prebuilt c3-f
 1582    1584         1        0.134970     2.986539E+05     ; C-F, prebuilt c3-f
 1582    1585         1        0.134970     2.986539E+05     ; C-F, prebuilt c3-f
 1586    1587         1        0.133430     4.764739E+05     ; C-C, prebuilt c2-c2
 1586    1591         1        0.108680     2.883613E+05     ; C-H, prebuilt c2-h4
 1587    1588         1        0.150950     2.734662E+05     ; C-C, prebuilt c2-c3
 1588    1589         1        0.134970     2.986539E+05     ; C-F, prebuilt c3-f
 1588    1590         1        0.134970     2.986539E+05     ; C-F, prebuilt c3-f
 1588    1612         1        0.134970     2.986539E+05     ; C-F, prebuilt c3-f
 1613    1614         1        0.109690     2.766461E+05     ; C-H, prebuilt c3-h1
 1613    1615         1        0.109690     2.766461E+05     ; C-H, prebuilt c3-h1
 1613    1616         1        0.109690     2.766461E+05     ; C-H, prebuilt c3-h1
 1617    1619         1        0.140150     3.325443E+05     ; N-C, prebuilt c2-na
 1617    1682         1        0.140150     3.325443E+05     ; N-C, prebuilt c2-na
 1617    1708         1        0.146290     2.742194E+05     ; N-C, prebuilt c3-na
 1618    1619         1        0.140150     3.325443E+05     ; N-C, prebuilt c2-na
 1618    1620         1        0.138400     3.518744E+05     ; N-C, prebuilt ca-na
 1618    1681         1        0.140150     3.325443E+05     ; N-C, prebuilt c2-na
 1619    1656         1        0.138460     4.034213E+05     ; C-C, prebuilt c2-ca
 1620    1621         1        0.139840     3.858485E+05     ; C-C, prebuilt ca-ca
 1620    1625         1        0.139840     3.858485E+05     ; C-C, prebuilt ca-ca
 1621    1622         1        0.139840     3.858485E+05     ; C-C, prebuilt ca-ca
 1621    1687         1        0.108600     2.893654E+05     ; C-H, prebuilt ca-ha
 1622    1623         1        0.139840     3.858485E+05     ; C-C, prebuilt ca-ca
 1622    1688         1        0.108600     2.893654E+05     ; C-H, prebuilt ca-ha
 1623    1624         1        0.139840     3.858485E+05     ; C-C, prebuilt ca-ca
 1623    1626         1        0.141210     3.214986E+05     ; C-N, prebuilt ca-n
 1624    1625         1        0.139840     3.858485E+05     ; C-C, prebuilt ca-ca
 1624    1690         1        0.108600     2.893654E+05     ; C-H, prebuilt ca-ha
 1625    1689         1        0.108600     2.893654E+05     ; C-H, prebuilt ca-ha
 1626    1627         1        0.137890     3.578157E+05     ; N-C, prebuilt c-n
 1626    1630         1        0.137890     3.578157E+05     ; N-C, prebuilt c-n
 1627    1628         1        0.149060     2.894491E+05     ; C-C, prebuilt c-ca
 1627    1651         1        0.121830     5.336274E+05     ; C-O, prebuilt c-o
 1628    1629         1        0.139840     3.858485E+05     ; C-C, prebuilt ca-ca
 1628    1632         1        0.139840     3.858485E+05     ; C-C, prebuilt ca-ca
 1629    1630         1        0.149060     2.894491E+05     ; C-C, prebuilt c-ca
 1629    1635         1        0.139840     3.858485E+05     ; C-C, prebuilt ca-ca
 1630    1631         1        0.121830     5.336274E+05     ; C-O, prebuilt c-o
 1632    1633         1        0.139840     3.858485E+05     ; C-C, prebuilt ca-ca
 1632    1691         1        0.108600     2.893654E+05     ; C-H, prebuilt ca-ha
 1633    1634         1        0.139840     3.858485E+05     ; C-C, prebuilt ca-ca
 1633    1642         1        0.151560     2.686128E+05     ; C-C, prebuilt c3-ca
 1634    1635         1        0.139840     3.858485E+05     ; C-C, prebuilt ca-ca
 1634    1692         1        0.108600     2.893654E+05     ; C-H, prebuilt ca-ha
 1635    1693         1        0.108600     2.893654E+05     ; C-H, prebuilt ca-ha
 1636    1637         1        0.139840     3.858485E+05     ; C-C, prebuilt ca-ca
 1636    1639         1        0.139840     3.858485E+05     ; C-C, prebuilt ca-ca
 1636    1642         1        0.151560     2.686128E+05     ; C-C, prebuilt c3-ca
 1637    1638         1        0.139840     3.858485E+05     ; C-C, prebuilt ca-ca
 1637    1695         1        0.108600     2.893654E+05     ; C-H, prebuilt ca-ha
 1638    1640         1        0.139840     3.858485E+05     ; C-C, prebuilt ca-ca
 1638    1652         1        0.149060     2.894491E+05     ; C-C, prebuilt c-ca
 1639    1641         1        0.139840     3.858485E+05     ; C-C, prebuilt ca-ca
 1639    1694         1        0.108600     2.893654E+05     ; C-H, prebuilt ca-ha
 1640    1641         1        0.139840     3.858485E+05     ; C-C, prebuilt ca-ca
 1640    1654         1        0.149060     2.894491E+05     ; C-C, prebuilt c-ca
 1641    1696         1        0.108600     2.893654E+05     ; C-H, prebuilt ca-ha
 1642    1643         1        0.153750     2.517931E+05     ; C-C, prebuilt c3-c3
 1642    1647         1        0.153750     2.517931E+05     ; C-C, prebuilt c3-c3
 1643    1644         1        0.134970     2.986539E+05     ; C-F, prebuilt c3-f
 1643    1645         1        0.134970     2.986539E+05     ; C-F, prebuilt c3-f
 1643    1646         1        0.134970     2.986539E+05     ; C-F, prebuilt c3-f
 1647    1648         1        0.134970     2.986539E+05     ; C-F, prebuilt c3-f
 1647    1649         1        0.134970     2.986539E+05     ; C-F, prebuilt c3-f
 1647    1650         1        0.134970     2.986539E+05     ; C-F, prebuilt c3-f
 1652    1653         1        0.137890     3.578157E+05     ; C-N, prebuilt c-n
 1652    1697         1        0.121830     5.336274E+05     ; C-O, prebuilt c-o
 1653    1654         1        0.137890     3.578157E+05     ; N-C, prebuilt c-n
 1653    1769         1        0.141210     3.214986E+05     ; N-C, prebuilt ca-n
 1654    1655         1        0.121830     5.336274E+05     ; C-O, prebuilt c-o
 1656    1657         1        0.139840     3.858485E+05     ; C-C, prebuilt ca-ca
 1656    1658         1        0.139840     3.858485E+05     ; C-C, prebuilt ca-ca
 1657    1659         1        0.139840     3.858485E+05     ; C-C, prebuilt ca-ca
 1657    1698         1        0.108600     2.893654E+05     ; C-H, prebuilt ca-ha
 1658    1660         1        0.139840     3.858485E+05     ; C-C, prebuilt ca-ca
 1658    1700         1        0.108600     2.893654E+05     ; C-H, prebuilt ca-ha
 1659    1661         1        0.139840     3.858485E+05     ; C-C, prebuilt ca-ca
 1659    1699         1        0.108600     2.893654E+05     ; C-H, prebuilt ca-ha
 1660    1661         1        0.139840     3.858485E+05     ; C-C, prebuilt ca-ca
 1660    1706         1        0.108600     2.893654E+05     ; C-H, prebuilt ca-ha
 1661    1662         1        0.138460     4.034213E+05     ; C-C, prebuilt c2-ca
 1662    1663         1        0.140150     3.325443E+05     ; C-N, prebuilt c2-na
 1662    1664         1        0.140150     3.325443E+05     ; C-N, prebuilt c2-na
 1663    1665         1        0.140150     3.325443E+05     ; N-C, prebuilt c2-na
 1663    1671         1        0.138400     3.518744E+05     ; N-C, prebuilt ca-na
 1664    1666         1        0.140150     3.325443E+05     ; N-C, prebuilt c2-na
 1664    1667         1        0.146290     2.742194E+05     ; N-C, prebuilt c3-na
 1665    1666         1        0.133430     4.764739E+05     ; C-C, prebuilt c2-c2
 1665    1705         1        0.108680     2.883613E+05     ; C-H, prebuilt c2-h4
 1666    1677         1        0.150950     2.734662E+05     ; C-C, prebuilt c2-c3
 1667    1668         1        0.109690     2.766461E+05     ; C-H, prebuilt c3-h1
 1667    1669         1        0.109690     2.766461E+05     ; C-H, prebuilt c3-h1
 1667    1670         1        0.109690     2.766461E+05     ; C-H, prebuilt c3-h1
 1671    1672         1        0.139840     3.858485E+05     ; C-C, prebuilt ca-ca
 1671    1676         1        0.139840     3.858485E+05     ; C-C, prebuilt ca-ca
 1672    1673         1        0.139840     3.858485E+05     ; C-C, prebuilt ca-ca
 1672    1702         1        0.108600     2.893654E+05     ; C-H, prebuilt ca-ha
 1673    1674         1        0.139840     3.858485E+05     ; C-C, prebuilt ca-ca
 1673    1701         1        0.108600     2.893654E+05     ; C-H, prebuilt ca-ha
 1674    1675         1        0.139840     3.858485E+05     ; C-C, prebuilt ca-ca
 1675    1676         1        0.139840     3.858485E+05     ; C-C, prebuilt ca-ca
 1675    1703         1        0.108600     2.893654E+05     ; C-H, prebuilt ca-ha
 1676    1704         1        0.108600     2.893654E+05     ; C-H, prebuilt ca-ha
 1677    1678         1        0.134970     2.986539E+05     ; C-F, prebuilt c3-f
 1677    1679         1        0.134970     2.986539E+05     ; C-F, prebuilt c3-f
 1677    1680         1        0.134970     2.986539E+05     ; C-F, prebuilt c3-f
 1681    1682         1        0.133430     4.764739E+05     ; C-C, prebuilt c2-c2
 1681    1686         1        0.108680     2.883613E+05     ; C-H, prebuilt c2-h4
 1682    1683         1        0.150950     2.734662E+05     ; C-C, prebuilt c2-c3
 1683    1684         1        0.134970     2.986539E+05     ; C-F, prebuilt c3-f
 1683    1685         1        0.134970     2.986539E+05     ; C-F, prebuilt c3-f
 1683    1707         1        0.134970     2.986539E+05     ; C-F, prebuilt c3-f
 1708    1709         1        0.109690     2.766461E+05     ; C-H, prebuilt c3-h1
 1708    1710         1        0.109690     2.766461E+05     ; C-H, prebuilt c3-h1
 1708    1711         1        0.109690     2.766461E+05     ; C-H, prebuilt c3-h1
 1712    1714         1        0.140150     3.325443E+05     ; N-C, prebuilt c2-na
 1712    1777         1        0.140150     3.325443E+05     ; N-C, prebuilt c2-na
 1712    1803         1        0.146290     2.742194E+05     ; N-C, prebuilt c3-na
 1713    1714         1        0.140150     3.325443E+05     ; N-C, prebuilt c2-na
 1713    1715         1        0.138400     3.518744E+05     ; N-C, prebuilt ca-na
 1713    1776         1        0.140150     3.325443E+05     ; N-C, prebuilt c2-na
 1714    1751         1        0.138460     4.034213E+05     ; C-C, prebuilt c2-ca
 1715    1716         1        0.139840     3.858485E+05     ; C-C, prebuilt ca-ca
 1715    1720         1        0.139840     3.858485E+05     ; C-C, prebuilt ca-ca
 1716    1717         1        0.139840     3.858485E+05     ; C-C, prebuilt ca-ca
 1716    1782         1        0.108600     2.893654E+05     ; C-H, prebuilt ca-ha
 1717    1718         1        0.139840     3.858485E+05     ; C-C, prebuilt ca-ca
 1717    1783         1        0.108600     2.893654E+05     ; C-H, prebuilt ca-ha
 1718    1719         1        0.139840     3.858485E+05     ; C-C, prebuilt ca-ca
 1718    1721         1        0.141210     3.214986E+05     ; C-N, prebuilt ca-n
 1719    1720         1        0.139840     3.858485E+05     ; C-C, prebuilt ca-ca
 1719    1785         1        0.108600     2.893654E+05     ; C-H, prebuilt ca-ha
 1720    1784         1        0.108600     2.893654E+05     ; C-H, prebuilt ca-ha
 1721    1722         1        0.137890     3.578157E+05     ; N-C, prebuilt c-n
 1721    1725         1        0.137890     3.578157E+05     ; N-C, prebuilt c-n
 1722    1723         1        0.149060     2.894491E+05     ; C-C, prebuilt c-ca
 1722    1746         1        0.121830     5.336274E+05     ; C-O, prebuilt c-o
 1723    1724         1        0.139840     3.858485E+05     ; C-C, prebuilt ca-ca
 1723    1727         1        0.139840     3.858485E+05     ; C-C, prebuilt ca-ca
 1724    1725         1        0.149060     2.894491E+05     ; C-C, prebuilt c-ca
 1724    1730         1        0.139840     3.858485E+05     ; C-C, prebuilt ca-ca
 1725    1726         1        0.121830     5.336274E+05     ; C-O, prebuilt c-o
 1727    1728         1        0.139840     3.858485E+05     ; C-C, prebuilt ca-ca
 1727    1786         1        0.108600     2.893654E+05     ; C-H, prebuilt ca-ha
 1728    1729         1        0.139840     3.858485E+05     ; C-C, prebuilt ca-ca
 1728    1737         1        0.151560     2.686128E+05     ; C-C, prebuilt c3-ca
 1729    1730         1        0.139840     3.858485E+05     ; C-C, prebuilt ca-ca
 1729    1787         1        0.108600     2.893654E+05     ; C-H, prebuilt ca-ha
 1730    1788         1        0.108600     2.893654E+05     ; C-H, prebuilt ca-ha
 1731    1732         1        0.139840     3.858485E+05     ; C-C, prebuilt ca-ca
 1731    1734         1        0.139840     3.858485E+05     ; C-C, prebuilt ca-ca
 1731    1737         1        0.151560     2.686128E+05     ; C-C, prebuilt c3-ca
 1732    1733         1        0.139840     3.858485E+05     ; C-C, prebuilt ca-ca
 1732    1790         1        0.108600     2.893654E+05     ; C-H, prebuilt ca-ha
 1733    1735         1        0.139840     3.858485E+05     ; C-C, prebuilt ca-ca
 1733    1747         1        0.149060     2.894491E+05     ; C-C, prebuilt c-ca
 1734    1736         1        0.139840     3.858485E+05     ; C-C, prebuilt ca-ca
 1734    1789         1        0.108600     2.893654E+05     ; C-H, prebuilt ca-ha
 1735    1736         1        0.139840     3.858485E+05     ; C-C, prebuilt ca-ca
 1735    1749         1        0.149060     2.894491E+05     ; C-C, prebuilt c-ca
 1736    1791         1        0.108600     2.893654E+05     ; C-H, prebuilt ca-ha
 1737    1738         1        0.153750     2.517931E+05     ; C-C, prebuilt c3-c3
 1737    1742         1        0.153750     2.517931E+05     ; C-C, prebuilt c3-c3
 1738    1739         1        0.134970     2.986539E+05     ; C-F, prebuilt c3-f
 1738    1740         1        0.134970     2.986539E+05     ; C-F, prebuilt c3-f
 1738    1741         1        0.134970     2.986539E+05     ; C-F, prebuilt c3-f
 1742    1743         1        0.134970     2.986539E+05     ; C-F, prebuilt c3-f
 1742    1744         1        0.134970     2.986539E+05     ; C-F, prebuilt c3-f
 1742    1745         1        0.134970     2.986539E+05     ; C-F, prebuilt c3-f
 1747    1748         1        0.137890     3.578157E+05     ; C-N, prebuilt c-n
 1747    1792         1        0.121830     5.336274E+05     ; C-O, prebuilt c-o
 1748    1749         1        0.137890     3.578157E+05     ; N-C, prebuilt c-n
 1748    1864         1        0.141210     3.214986E+05     ; N-C, prebuilt ca-n
 1749    1750         1        0.121830     5.336274E+05     ; C-O, prebuilt c-o
 1751    1752         1        0.139840     3.858485E+05     ; C-C, prebuilt ca-ca
 1751    1753         1        0.139840     3.858485E+05     ; C-C, prebuilt ca-ca
 1752    1754         1        0.139840     3.858485E+05     ; C-C, prebuilt ca-ca
 1752    1793         1        0.108600     2.893654E+05     ; C-H, prebuilt ca-ha
 1753    1755         1        0.139840     3.858485E+05     ; C-C, prebuilt ca-ca
 1753    1795         1        0.108600     2.893654E+05     ; C-H, prebuilt ca-ha
 1754    1756         1        0.139840     3.858485E+05     ; C-C, prebuilt ca-ca
 1754    1794         1        0.108600     2.893654E+05     ; C-H, prebuilt ca-ha
 1755    1756         1        0.139840     3.858485E+05     ; C-C, prebuilt ca-ca
 1755    1801         1        0.108600     2.893654E+05     ; C-H, prebuilt ca-ha
 1756    1757         1        0.138460     4.034213E+05     ; C-C, prebuilt c2-ca
 1757    1758         1        0.140150     3.325443E+05     ; C-N, prebuilt c2-na
 1757    1759         1        0.140150     3.325443E+05     ; C-N, prebuilt c2-na
 1758    1760         1        0.140150     3.325443E+05     ; N-C, prebuilt c2-na
 1758    1766         1        0.138400     3.518744E+05     ; N-C, prebuilt ca-na
 1759    1761         1        0.140150     3.325443E+05     ; N-C, prebuilt c2-na
 1759    1762         1        0.146290     2.742194E+05     ; N-C, prebuilt c3-na
 1760    1761         1        0.133430     4.764739E+05     ; C-C, prebuilt c2-c2
 1760    1800         1        0.108680     2.883613E+05     ; C-H, prebuilt c2-h4
 1761    1772         1        0.150950     2.734662E+05     ; C-C, prebuilt c2-c3
 1762    1763         1        0.109690     2.766461E+05     ; C-H, prebuilt c3-h1
 1762    1764         1        0.109690     2.766461E+05     ; C-H, prebuilt c3-h1
 1762    1765         1        0.109690     2.766461E+05     ; C-H, prebuilt c3-h1
 1766    1767         1        0.139840     3.858485E+05     ; C-C, prebuilt ca-ca
 1766    1771         1        0.139840     3.858485E+05     ; C-C, prebuilt ca-ca
 1767    1768         1        0.139840     3.858485E+05     ; C-C, prebuilt ca-ca
 1767    1797         1        0.108600     2.893654E+05     ; C-H, prebuilt ca-ha
 1768    1769         1        0.139840     3.858485E+05     ; C-C, prebuilt ca-ca
 1768    1796         1        0.108600     2.893654E+05     ; C-H, prebuilt ca-ha
 1769    1770         1        0.139840     3.858485E+05     ; C-C, prebuilt ca-ca
 1770    1771         1        0.139840     3.858485E+05     ; C-C, prebuilt ca-ca
 1770    1798         1        0.108600     2.893654E+05     ; C-H, prebuilt ca-ha
 1771    1799         1        0.108600     2.893654E+05     ; C-H, prebuilt ca-ha
 1772    1773         1        0.134970     2.986539E+05     ; C-F, prebuilt c3-f
 1772    1774         1        0.134970     2.986539E+05     ; C-F, prebuilt c3-f
 1772    1775         1        0.134970     2.986539E+05     ; C-F, prebuilt c3-f
 1776    1777         1        0.133430     4.764739E+05     ; C-C, prebuilt c2-c2
 1776    1781         1        0.108680     2.883613E+05     ; C-H, prebuilt c2-h4
 1777    1778         1        0.150950     2.734662E+05     ; C-C, prebuilt c2-c3
 1778    1779         1        0.134970     2.986539E+05     ; C-F, prebuilt c3-f
 1778    1780         1        0.134970     2.986539E+05     ; C-F, prebuilt c3-f
 1778    1802         1        0.134970     2.986539E+05     ; C-F, prebuilt c3-f
 1803    1804         1        0.109690     2.766461E+05     ; C-H, prebuilt c3-h1
 1803    1805         1        0.109690     2.766461E+05     ; C-H, prebuilt c3-h1
 1803    1806         1        0.109690     2.766461E+05     ; C-H, prebuilt c3-h1
 1807    1809         1        0.140150     3.325443E+05     ; N-C, prebuilt c2-na
 1807    1872         1        0.140150     3.325443E+05     ; N-C, prebuilt c2-na
 1807    1898         1        0.146290     2.742194E+05     ; N-C, prebuilt c3-na
 1808    1809         1        0.140150     3.325443E+05     ; N-C, prebuilt c2-na
 1808    1810         1        0.138400     3.518744E+05     ; N-C, prebuilt ca-na
 1808    1871         1        0.140150     3.325443E+05     ; N-C, prebuilt c2-na
 1809    1846         1        0.138460     4.034213E+05     ; C-C, prebuilt c2-ca
 1810    1811         1        0.139840     3.858485E+05     ; C-C, prebuilt ca-ca
 1810    1815         1        0.139840     3.858485E+05     ; C-C, prebuilt ca-ca
 1811    1812         1        0.139840     3.858485E+05     ; C-C, prebuilt ca-ca
 1811    1877         1        0.108600     2.893654E+05     ; C-H, prebuilt ca-ha
 1812    1813         1        0.139840     3.858485E+05     ; C-C, prebuilt ca-ca
 1812    1878         1        0.108600     2.893654E+05     ; C-H, prebuilt ca-ha
 1813    1814         1        0.139840     3.858485E+05     ; C-C, prebuilt ca-ca
 1813    1816         1        0.141210     3.214986E+05     ; C-N, prebuilt ca-n
 1814    1815         1        0.139840     3.858485E+05     ; C-C, prebuilt ca-ca
 1814    1880         1        0.108600     2.893654E+05     ; C-H, prebuilt ca-ha
 1815    1879         1        0.108600     2.893654E+05     ; C-H, prebuilt ca-ha
 1816    1817         1        0.137890     3.578157E+05     ; N-C, prebuilt c-n
 1816    1820         1        0.137890     3.578157E+05     ; N-C, prebuilt c-n
 1817    1818         1        0.149060     2.894491E+05     ; C-C, prebuilt c-ca
 1817    1841         1        0.121830     5.336274E+05     ; C-O, prebuilt c-o
 1818    1819         1        0.139840     3.858485E+05     ; C-C, prebuilt ca-ca
 1818    1822         1        0.139840     3.858485E+05     ; C-C, prebuilt ca-ca
 1819    1820         1        0.149060     2.894491E+05     ; C-C, prebuilt c-ca
 1819    1825         1        0.139840     3.858485E+05     ; C-C, prebuilt ca-ca
 1820    1821         1        0.121830     5.336274E+05     ; C-O, prebuilt c-o
 1822    1823         1        0.139840     3.858485E+05     ; C-C, prebuilt ca-ca
 1822    1881         1        0.108600     2.893654E+05     ; C-H, prebuilt ca-ha
 1823    1824         1        0.139840     3.858485E+05     ; C-C, prebuilt ca-ca
 1823    1832         1        0.151560     2.686128E+05     ; C-C, prebuilt c3-ca
 1824    1825         1        0.139840     3.858485E+05     ; C-C, prebuilt ca-ca
 1824    1882         1        0.108600     2.893654E+05     ; C-H, prebuilt ca-ha
 1825    1883         1        0.108600     2.893654E+05     ; C-H, prebuilt ca-ha
 1826    1827         1        0.139840     3.858485E+05     ; C-C, prebuilt ca-ca
 1826    1829         1        0.139840     3.858485E+05     ; C-C, prebuilt ca-ca
 1826    1832         1        0.151560     2.686128E+05     ; C-C, prebuilt c3-ca
 1827    1828         1        0.139840     3.858485E+05     ; C-C, prebuilt ca-ca
 1827    1885         1        0.108600     2.893654E+05     ; C-H, prebuilt ca-ha
 1828    1830         1        0.139840     3.858485E+05     ; C-C, prebuilt ca-ca
 1828    1842         1        0.149060     2.894491E+05     ; C-C, prebuilt c-ca
 1829    1831         1        0.139840     3.858485E+05     ; C-C, prebuilt ca-ca
 1829    1884         1        0.108600     2.893654E+05     ; C-H, prebuilt ca-ha
 1830    1831         1        0.139840     3.858485E+05     ; C-C, prebuilt ca-ca
 1830    1844         1        0.149060     2.894491E+05     ; C-C, prebuilt c-ca
 1831    1886         1        0.108600     2.893654E+05     ; C-H, prebuilt ca-ha
 1832    1833         1        0.153750     2.517931E+05     ; C-C, prebuilt c3-c3
 1832    1837         1        0.153750     2.517931E+05     ; C-C, prebuilt c3-c3
 1833    1834         1        0.134970     2.986539E+05     ; C-F, prebuilt c3-f
 1833    1835         1        0.134970     2.986539E+05     ; C-F, prebuilt c3-f
 1833    1836         1        0.134970     2.986539E+05     ; C-F, prebuilt c3-f
 1837    1838         1        0.134970     2.986539E+05     ; C-F, prebuilt c3-f
 1837    1839         1        0.134970     2.986539E+05     ; C-F, prebuilt c3-f
 1837    1840         1        0.134970     2.986539E+05     ; C-F, prebuilt c3-f
 1842    1843         1        0.137890     3.578157E+05     ; C-N, prebuilt c-n
 1842    1887         1        0.121830     5.336274E+05     ; C-O, prebuilt c-o
 1843    1844         1        0.137890     3.578157E+05     ; N-C, prebuilt c-n
 1843    1902         1        0.101290     3.373978E+05     ; N-H, prebuilt hn-n
 1844    1845         1        0.121830     5.336274E+05     ; C-O, prebuilt c-o
 1846    1847         1        0.139840     3.858485E+05     ; C-C, prebuilt ca-ca
 1846    1848         1        0.139840     3.858485E+05     ; C-C, prebuilt ca-ca
 1847    1849         1        0.139840     3.858485E+05     ; C-C, prebuilt ca-ca
 1847    1888         1        0.108600     2.893654E+05     ; C-H, prebuilt ca-ha
 1848    1850         1        0.139840     3.858485E+05     ; C-C, prebuilt ca-ca
 1848    1890         1        0.108600     2.893654E+05     ; C-H, prebuilt ca-ha
 1849    1851         1        0.139840     3.858485E+05     ; C-C, prebuilt ca-ca
 1849    1889         1        0.108600     2.893654E+05     ; C-H, prebuilt ca-ha
 1850    1851         1        0.139840     3.858485E+05     ; C-C, prebuilt ca-ca
 1850    1896         1        0.108600     2.893654E+05     ; C-H, prebuilt ca-ha
 1851    1852         1        0.138460     4.034213E+05     ; C-C, prebuilt c2-ca
 1852    1853         1        0.140150     3.325443E+05     ; C-N, prebuilt c2-na
 1852    1854         1        0.140150     3.325443E+05     ; C-N, prebuilt c2-na
 1853    1855         1        0.140150     3.325443E+05     ; N-C, prebuilt c2-na
 1853    1861         1        0.138400     3.518744E+05     ; N-C, prebuilt ca-na
 1854    1856         1        0.140150     3.325443E+05     ; N-C, prebuilt c2-na
 1854    1857         1        0.146290     2.742194E+05     ; N-C, prebuilt c3-na
 1855    1856         1        0.133430     4.764739E+05     ; C-C, prebuilt c2-c2
 1855    1895         1        0.108680     2.883613E+05     ; C-H, prebuilt c2-h4
 1856    1867         1        0.150950     2.734662E+05     ; C-C, prebuilt c2-c3
 1857    1858         1        0.109690     2.766461E+05     ; C-H, prebuilt c3-h1
 1857    1859         1        0.109690     2.766461E+05     ; C-H, prebuilt c3-h1
 1857    1860         1        0.109690     2.766461E+05     ; C-H, prebuilt c3-h1
 1861    1862         1        0.139840     3.858485E+05     ; C-C, prebuilt ca-ca
 1861    1866         1        0.139840     3.858485E+05     ; C-C, prebuilt ca-ca
 1862    1863         1        0.139840     3.858485E+05     ; C-C, prebuilt ca-ca
 1862    1892         1        0.108600     2.893654E+05     ; C-H, prebuilt ca-ha
 1863    1864         1        0.139840     3.858485E+05     ; C-C, prebuilt ca-ca
 1863    1891         1        0.108600     2.893654E+05     ; C-H, prebuilt ca-ha
 1864    1865         1        0.139840     3.858485E+05     ; C-C, prebuilt ca-ca
 1865    1866         1        0.139840     3.858485E+05     ; C-C, prebuilt ca-ca
 1865    1893         1        0.108600     2.893654E+05     ; C-H, prebuilt ca-ha
 1866    1894         1        0.108600     2.893654E+05     ; C-H, prebuilt ca-ha
 1867    1868         1        0.134970     2.986539E+05     ; C-F, prebuilt c3-f
 1867    1869         1        0.134970     2.986539E+05     ; C-F, prebuilt c3-f
 1867    1870         1        0.134970     2.986539E+05     ; C-F, prebuilt c3-f
 1871    1872         1        0.133430     4.764739E+05     ; C-C, prebuilt c2-c2
 1871    1876         1        0.108680     2.883613E+05     ; C-H, prebuilt c2-h4
 1872    1873         1        0.150950     2.734662E+05     ; C-C, prebuilt c2-c3
 1873    1874         1        0.134970     2.986539E+05     ; C-F, prebuilt c3-f
 1873    1875         1        0.134970     2.986539E+05     ; C-F, prebuilt c3-f
 1873    1897         1        0.134970     2.986539E+05     ; C-F, prebuilt c3-f
 1898    1899         1        0.109690     2.766461E+05     ; C-H, prebuilt c3-h1
 1898    1900         1        0.109690     2.766461E+05     ; C-H, prebuilt c3-h1
 1898    1901         1        0.109690     2.766461E+05     ; C-H, prebuilt c3-h1
 
[ angles ]
; atom_i  atom_j  atom_k  functype    a0 (Deg.)  k (kJ/mol/rad^2)
    3       1      66         1       110.370      5.631664E+02     ; C-N-C, prebuilt c2-na-c2
    3       1      93         1       117.200      5.347152E+02     ; C-N-C, prebuilt c2-na-c3
   66       1      93         1       117.200      5.347152E+02     ; C-N-C, prebuilt c2-na-c3
    3       2       4         1       124.970      5.322048E+02     ; C-N-C, prebuilt c2-na-ca
    3       2      65         1       110.370      5.631664E+02     ; C-N-C, prebuilt c2-na-c2
    4       2      65         1       124.970      5.322048E+02     ; C-N-C, prebuilt c2-na-ca
    1       3       2         1       109.330      6.117008E+02     ; N-C-N, prebuilt na-c2-na
    1       3      40         1       125.537      5.000000E+02     ; N-C-C (na-c2-ca) missing and simply guessed
    2       3      40         1       128.076      5.000000E+02     ; N-C-C (na-c2-ca) missing and simply guessed
    2       4       5         1       118.340      5.782288E+02     ; N-C-C, prebuilt ca-ca-na
    2       4       9         1       118.340      5.782288E+02     ; N-C-C, prebuilt ca-ca-na
    5       4       9         1       120.020      5.573088E+02     ; C-C-C, prebuilt ca-ca-ca
    4       5       6         1       120.020      5.573088E+02     ; C-C-C, prebuilt ca-ca-ca
    4       5      71         1       119.880      4.033376E+02     ; C-C-H, prebuilt ca-ca-ha
    6       5      71         1       119.880      4.033376E+02     ; C-C-H, prebuilt ca-ca-ha
    5       6       7         1       120.020      5.573088E+02     ; C-C-C, prebuilt ca-ca-ca
    5       6      72         1       119.880      4.033376E+02     ; C-C-H, prebuilt ca-ca-ha
    7       6      72         1       119.880      4.033376E+02     ; C-C-H, prebuilt ca-ca-ha
    6       7       8         1       120.020      5.573088E+02     ; C-C-C, prebuilt ca-ca-ca
    6       7      10         1       120.190      5.681872E+02     ; C-C-N, prebuilt ca-ca-n
    8       7      10         1       120.190      5.681872E+02     ; C-C-N, prebuilt ca-ca-n
    7       8       9         1       120.020      5.573088E+02     ; C-C-C, prebuilt ca-ca-ca
    7       8      74         1       119.880      4.033376E+02     ; C-C-H, prebuilt ca-ca-ha
    9       8      74         1       119.880      4.033376E+02     ; C-C-H, prebuilt ca-ca-ha
    4       9       8         1       120.020      5.573088E+02     ; C-C-C, prebuilt ca-ca-ca
    4       9      73         1       119.880      4.033376E+02     ; C-C-H, prebuilt ca-ca-ha
    8       9      73         1       119.880      4.033376E+02     ; C-C-H, prebuilt ca-ca-ha
    7      10      11         1       123.710      5.338784E+02     ; C-N-C, prebuilt c-n-ca
    7      10      14         1       123.710      5.338784E+02     ; C-N-C, prebuilt c-n-ca
   11      10      14         1       127.080      5.330416E+02     ; C-N-C, prebuilt c-n-c
   10      11      12         1       115.250      5.665136E+02     ; N-C-C, prebuilt ca-c-n
   10      11      35         1       123.050      6.209056E+02     ; N-C-O, prebuilt n-c-o
   12      11      35         1       122.600      5.748816E+02     ; C-C-O, prebuilt ca-c-o
   11      12      13         1       120.330      5.380624E+02     ; C-C-C, prebuilt c-ca-ca
   11      12      16         1       120.330      5.380624E+02     ; C-C-C, prebuilt c-ca-ca
   13      12      16         1       120.020      5.573088E+02     ; C-C-C, prebuilt ca-ca-ca
   12      13      14         1       120.330      5.380624E+02     ; C-C-C, prebuilt c-ca-ca
   12      13      19         1       120.020      5.573088E+02     ; C-C-C, prebuilt ca-ca-ca
   14      13      19         1       120.330      5.380624E+02     ; C-C-C, prebuilt c-ca-ca
   10      14      13         1       115.250      5.665136E+02     ; N-C-C, prebuilt ca-c-n
   10      14      15         1       123.050      6.209056E+02     ; N-C-O, prebuilt n-c-o
   13      14      15         1       122.600      5.748816E+02     ; C-C-O, prebuilt ca-c-o
   12      16      17         1       120.020      5.573088E+02     ; C-C-C, prebuilt ca-ca-ca
   12      16      75         1       119.880      4.033376E+02     ; C-C-H, prebuilt ca-ca-ha
   17      16      75         1       119.880      4.033376E+02     ; C-C-H, prebuilt ca-ca-ha
   16      17      18         1       120.020      5.573088E+02     ; C-C-C, prebuilt ca-ca-ca
   16      17      26         1       120.770      5.313680E+02     ; C-C-C, prebuilt c3-ca-ca
   18      17      26         1       120.770      5.313680E+02     ; C-C-C, prebuilt c3-ca-ca
   17      18      19         1       120.020      5.573088E+02     ; C-C-C, prebuilt ca-ca-ca
   17      18      76         1       119.880      4.033376E+02     ; C-C-H, prebuilt ca-ca-ha
   19      18      76         1       119.880      4.033376E+02     ; C-C-H, prebuilt ca-ca-ha
   13      19      18         1       120.020      5.573088E+02     ; C-C-C, prebuilt ca-ca-ca
   13      19      77         1       119.880      4.033376E+02     ; C-C-H, prebuilt ca-ca-ha
   18      19      77         1       119.880      4.033376E+02     ; C-C-H, prebuilt ca-ca-ha
   21      20      23         1       120.020      5.573088E+02     ; C-C-C, prebuilt ca-ca-ca
   21      20      26         1       120.770      5.313680E+02     ; C-C-C, prebuilt c3-ca-ca
   23      20      26         1       120.770      5.313680E+02     ; C-C-C, prebuilt c3-ca-ca
   20      21      22         1       120.020      5.573088E+02     ; C-C-C, prebuilt ca-ca-ca
   20      21      79         1       119.880      4.033376E+02     ; C-C-H, prebuilt ca-ca-ha
   22      21      79         1       119.880      4.033376E+02     ; C-C-H, prebuilt ca-ca-ha
   21      22      24         1       120.020      5.573088E+02     ; C-C-C, prebuilt ca-ca-ca
   21      22      36         1       120.330      5.380624E+02     ; C-C-C, prebuilt c-ca-ca
   24      22      36         1       120.330      5.380624E+02     ; C-C-C, prebuilt c-ca-ca
   20      23      25         1       120.020      5.573088E+02     ; C-C-C, prebuilt ca-ca-ca
   20      23      78         1       119.880      4.033376E+02     ; C-C-H, prebuilt ca-ca-ha
   25      23      78         1       119.880      4.033376E+02     ; C-C-H, prebuilt ca-ca-ha
   22      24      25         1       120.020      5.573088E+02     ; C-C-C, prebuilt ca-ca-ca
   22      24      38         1       120.330      5.380624E+02     ; C-C-C, prebuilt c-ca-ca
   25      24      38         1       120.330      5.380624E+02     ; C-C-C, prebuilt c-ca-ca
   23      25      24         1       120.020      5.573088E+02     ; C-C-C, prebuilt ca-ca-ca
   23      25      80         1       119.880      4.033376E+02     ; C-C-H, prebuilt ca-ca-ha
   24      25      80         1       119.880      4.033376E+02     ; C-C-H, prebuilt ca-ca-ha
   17      26      20         1       112.240      5.322048E+02     ; C-C-C, prebuilt ca-c3-ca
   17      26      27         1       112.070      5.280208E+02     ; C-C-C, prebuilt c3-c3-ca
   17      26      31         1       112.070      5.280208E+02     ; C-C-C, prebuilt c3-c3-ca
   20      26      27         1       112.070      5.280208E+02     ; C-C-C, prebuilt c3-c3-ca
   20      26      31         1       112.070      5.280208E+02     ; C-C-C, prebuilt c3-c3-ca
   27      26      31         1       111.510      5.263472E+02     ; C-C-C, prebuilt c3-c3-c3
   26      27      28         1       109.240      5.531248E+02     ; C-C-F, prebuilt c3-c3-f
   26      27      29         1       109.240      5.531248E+02     ; C-C-F, prebuilt c3-c3-f
   26      27      30         1       109.240      5.531248E+02     ; C-C-F, prebuilt c3-c3-f
   28      27      29         1       107.360      5.932912E+02     ; F-C-F, prebuilt f-c3-f
   28      27      30         1       107.360      5.932912E+02     ; F-C-F, prebuilt f-c3-f
   29      27      30         1       107.360      5.932912E+02     ; F-C-F, prebuilt f-c3-f
   26      31      32         1       109.240      5.531248E+02     ; C-C-F, prebuilt c3-c3-f
   26      31      33         1       109.240      5.531248E+02     ; C-C-F, prebuilt c3-c3-f
   26      31      34         1       109.240      5.531248E+02     ; C-C-F, prebuilt c3-c3-f
   32      31      33         1       107.360      5.932912E+02     ; F-C-F, prebuilt f-c3-f
   32      31      34         1       107.360      5.932912E+02     ; F-C-F, prebuilt f-c3-f
   33      31      34         1       107.360      5.932912E+02     ; F-C-F, prebuilt f-c3-f
   22      36      37         1       115.250      5.665136E+02     ; C-C-N, prebuilt ca-c-n
   22      36      81         1       122.600      5.748816E+02     ; C-C-O, prebuilt ca-c-o
   37      36      81         1       123.050      6.209056E+02     ; N-C-O, prebuilt n-c-o
   36      37      38         1       127.080      5.330416E+02     ; C-N-C, prebuilt c-n-c
   36      37     154         1       123.710      5.338784E+02     ; C-N-C, prebuilt c-n-ca
   38      37     154         1       123.710      5.338784E+02     ; C-N-C, prebuilt c-n-ca
   24      38      37         1       115.250      5.665136E+02     ; C-C-N, prebuilt ca-c-n
   24      38      39         1       122.600      5.748816E+02     ; C-C-O, prebuilt ca-c-o
   37      38      39         1       123.050      6.209056E+02     ; N-C-O, prebuilt n-c-o
    3      40      41         1       120.600      5.589824E+02     ; C-C-C, prebuilt c2-ca-ca
    3      40      42         1       120.600      5.589824E+02     ; C-C-C, prebuilt c2-ca-ca
   41      40      42         1       120.020      5.573088E+02     ; C-C-C, prebuilt ca-ca-ca
   40      41      43         1       120.020      5.573088E+02     ; C-C-C, prebuilt ca-ca-ca
   40      41      82         1       119.880      4.033376E+02     ; C-C-H, prebuilt ca-ca-ha
   43      41      82         1       119.880      4.033376E+02     ; C-C-H, prebuilt ca-ca-ha
   40      42      44         1       120.020      5.573088E+02     ; C-C-C, prebuilt ca-ca-ca
   40      42      84         1       119.880      4.033376E+02     ; C-C-H, prebuilt ca-ca-ha
   44      42      84         1       119.880      4.033376E+02     ; C-C-H, prebuilt ca-ca-ha
   41      43      45         1       120.020      5.573088E+02     ; C-C-C, prebuilt ca-ca-ca
   41      43      83         1       119.880      4.033376E+02     ; C-C-H, prebuilt ca-ca-ha
   45      43      83         1       119.880      4.033376E+02     ; C-C-H, prebuilt ca-ca-ha
   42      44      45         1       120.020      5.573088E+02     ; C-C-C, prebuilt ca-ca-ca
   42      44      91         1       119.880      4.033376E+02     ; C-C-H, prebuilt ca-ca-ha
   45      44      91         1       119.880      4.033376E+02     ; C-C-H, prebuilt ca-ca-ha
   43      45      44         1       120.020      5.573088E+02     ; C-C-C, prebuilt ca-ca-ca
   43      45      46         1       120.600      5.589824E+02     ; C-C-C, prebuilt c2-ca-ca
   44      45      46         1       120.600      5.589824E+02     ; C-C-C, prebuilt c2-ca-ca
   45      46      47         1       127.165      5.000000E+02     ; C-C-N (ca-c2-na) missing and simply guessed
   45      46      48         1       126.717      5.000000E+02     ; C-C-N (ca-c2-na) missing and simply guessed
   47      46      48         1       109.330      6.117008E+02     ; N-C-N, prebuilt na-c2-na
   46      47      49         1       110.370      5.631664E+02     ; C-N-C, prebuilt c2-na-c2
   46      47      55         1       124.970      5.322048E+02     ; C-N-C, prebuilt c2-na-ca
   49      47      55         1       124.970      5.322048E+02     ; C-N-C, prebuilt c2-na-ca
   46      48      50         1       110.370      5.631664E+02     ; C-N-C, prebuilt c2-na-c2
   46      48      51         1       117.200      5.347152E+02     ; C-N-C, prebuilt c2-na-c3
   50      48      51         1       117.200      5.347152E+02     ; C-N-C, prebuilt c2-na-c3
   47      49      50         1       121.940      5.782288E+02     ; N-C-C, prebuilt c2-c2-na
   47      49      90         1       112.970      4.250944E+02     ; N-C-H, prebuilt h4-c2-na
   50      49      90         1       122.670      4.133792E+02     ; C-C-H, prebuilt c2-c2-h4
   48      50      49         1       121.940      5.782288E+02     ; N-C-C, prebuilt c2-c2-na
   48      50      61         1       117.200      5.539616E+02     ; N-C-C, prebuilt c3-c2-na
   49      50      61         1       123.630      5.363888E+02     ; C-C-C, prebuilt c2-c2-c3
   48      51      52         1       108.780      4.167264E+02     ; N-C-H, prebuilt h1-c3-na
   48      51      53         1       108.780      4.167264E+02     ; N-C-H, prebuilt h1-c3-na
   48      51      54         1       108.780      4.167264E+02     ; N-C-H, prebuilt h1-c3-na
   52      51      53         1       108.460      3.280256E+02     ; H-C-H, prebuilt h1-c3-h1
   52      51      54         1       108.460      3.280256E+02     ; H-C-H, prebuilt h1-c3-h1
   53      51      54         1       108.460      3.280256E+02     ; H-C-H, prebuilt h1-c3-h1
   47      55      56         1       118.340      5.782288E+02     ; N-C-C, prebuilt ca-ca-na
   47      55      60         1       118.340      5.782288E+02     ; N-C-C, prebuilt ca-ca-na
   56      55      60         1       120.020      5.573088E+02     ; C-C-C, prebuilt ca-ca-ca
   55      56      57         1       120.020      5.573088E+02     ; C-C-C, prebuilt ca-ca-ca
   55      56      87         1       119.880      4.033376E+02     ; C-C-H, prebuilt ca-ca-ha
   57      56      87         1       119.880      4.033376E+02     ; C-C-H, prebuilt ca-ca-ha
   56      57      58         1       120.020      5.573088E+02     ; C-C-C, prebuilt ca-ca-ca
   56      57      85         1       119.880      4.033376E+02     ; C-C-H, prebuilt ca-ca-ha
   58      57      85         1       119.880      4.033376E+02     ; C-C-H, prebuilt ca-ca-ha
   57      58      59         1       120.020      5.573088E+02     ; C-C-C, prebuilt ca-ca-ca
   57      58      86         1       119.880      4.033376E+02     ; C-C-H, prebuilt ca-ca-ha
   59      58      86         1       119.880      4.033376E+02     ; C-C-H, prebuilt ca-ca-ha
   58      59      60         1       120.020      5.573088E+02     ; C-C-C, prebuilt ca-ca-ca
   58      59      88         1       119.880      4.033376E+02     ; C-C-H, prebuilt ca-ca-ha
   60      59      88         1       119.880      4.033376E+02     ; C-C-H, prebuilt ca-ca-ha
   55      60      59         1       120.020      5.573088E+02     ; C-C-C, prebuilt ca-ca-ca
   55      60      89         1       119.880      4.033376E+02     ; C-C-H, prebuilt ca-ca-ha
   59      60      89         1       119.880      4.033376E+02     ; C-C-H, prebuilt ca-ca-ha
   50      61      62         1       110.760      5.556352E+02     ; C-C-F, prebuilt c2-c3-f
   50      61      63         1       110.760      5.556352E+02     ; C-C-F, prebuilt c2-c3-f
   50      61      64         1       110.760      5.556352E+02     ; C-C-F, prebuilt c2-c3-f
   62      61      63         1       107.360      5.932912E+02     ; F-C-F, prebuilt f-c3-f
   62      61      64         1       107.360      5.932912E+02     ; F-C-F, prebuilt f-c3-f
   63      61      64         1       107.360      5.932912E+02     ; F-C-F, prebuilt f-c3-f
    2      65      66         1       121.940      5.782288E+02     ; N-C-C, prebuilt c2-c2-na
    2      65      70         1       112.970      4.250944E+02     ; N-C-H, prebuilt h4-c2-na
   66      65      70         1       122.670      4.133792E+02     ; C-C-H, prebuilt c2-c2-h4
    1      66      65         1       121.940      5.782288E+02     ; N-C-C, prebuilt c2-c2-na
    1      66      67         1       117.200      5.539616E+02     ; N-C-C, prebuilt c3-c2-na
   65      66      67         1       123.630      5.363888E+02     ; C-C-C, prebuilt c2-c2-c3
   66      67      68         1       110.760      5.556352E+02     ; C-C-F, prebuilt c2-c3-f
   66      67      69         1       110.760      5.556352E+02     ; C-C-F, prebuilt c2-c3-f
   66      67      92         1       110.760      5.556352E+02     ; C-C-F, prebuilt c2-c3-f
   68      67      69         1       107.360      5.932912E+02     ; F-C-F, prebuilt f-c3-f
   68      67      92         1       107.360      5.932912E+02     ; F-C-F, prebuilt f-c3-f
   69      67      92         1       107.360      5.932912E+02     ; F-C-F, prebuilt f-c3-f
    1      93      94         1       108.780      4.167264E+02     ; N-C-H, prebuilt h1-c3-na
    1      93      95         1       108.780      4.167264E+02     ; N-C-H, prebuilt h1-c3-na
    1      93      96         1       108.780      4.167264E+02     ; N-C-H, prebuilt h1-c3-na
   94      93      95         1       108.460      3.280256E+02     ; H-C-H, prebuilt h1-c3-h1
   94      93      96         1       108.460      3.280256E+02     ; H-C-H, prebuilt h1-c3-h1
   95      93      96         1       108.460      3.280256E+02     ; H-C-H, prebuilt h1-c3-h1
   99      97     162         1       110.370      5.631664E+02     ; C-N-C, prebuilt c2-na-c2
   99      97     188         1       117.200      5.347152E+02     ; C-N-C, prebuilt c2-na-c3
  162      97     188         1       117.200      5.347152E+02     ; C-N-C, prebuilt c2-na-c3
   99      98     100         1       124.970      5.322048E+02     ; C-N-C, prebuilt c2-na-ca
   99      98     161         1       110.370      5.631664E+02     ; C-N-C, prebuilt c2-na-c2
  100      98     161         1       124.970      5.322048E+02     ; C-N-C, prebuilt c2-na-ca
   97      99      98         1       109.330      6.117008E+02     ; N-C-N, prebuilt na-c2-na
   97      99     136         1       125.109      5.000000E+02     ; N-C-C (na-c2-ca) missing and simply guessed
   98      99     136         1       128.537      5.000000E+02     ; N-C-C (na-c2-ca) missing and simply guessed
   98     100     101         1       118.340      5.782288E+02     ; N-C-C, prebuilt ca-ca-na
   98     100     105         1       118.340      5.782288E+02     ; N-C-C, prebuilt ca-ca-na
  101     100     105         1       120.020      5.573088E+02     ; C-C-C, prebuilt ca-ca-ca
  100     101     102         1       120.020      5.573088E+02     ; C-C-C, prebuilt ca-ca-ca
  100     101     167         1       119.880      4.033376E+02     ; C-C-H, prebuilt ca-ca-ha
  102     101     167         1       119.880      4.033376E+02     ; C-C-H, prebuilt ca-ca-ha
  101     102     103         1       120.020      5.573088E+02     ; C-C-C, prebuilt ca-ca-ca
  101     102     168         1       119.880      4.033376E+02     ; C-C-H, prebuilt ca-ca-ha
  103     102     168         1       119.880      4.033376E+02     ; C-C-H, prebuilt ca-ca-ha
  102     103     104         1       120.020      5.573088E+02     ; C-C-C, prebuilt ca-ca-ca
  102     103     106         1       120.190      5.681872E+02     ; C-C-N, prebuilt ca-ca-n
  104     103     106         1       120.190      5.681872E+02     ; C-C-N, prebuilt ca-ca-n
  103     104     105         1       120.020      5.573088E+02     ; C-C-C, prebuilt ca-ca-ca
  103     104     170         1       119.880      4.033376E+02     ; C-C-H, prebuilt ca-ca-ha
  105     104     170         1       119.880      4.033376E+02     ; C-C-H, prebuilt ca-ca-ha
  100     105     104         1       120.020      5.573088E+02     ; C-C-C, prebuilt ca-ca-ca
  100     105     169         1       119.880      4.033376E+02     ; C-C-H, prebuilt ca-ca-ha
  104     105     169         1       119.880      4.033376E+02     ; C-C-H, prebuilt ca-ca-ha
  103     106     107         1       123.710      5.338784E+02     ; C-N-C, prebuilt c-n-ca
  103     106     110         1       123.710      5.338784E+02     ; C-N-C, prebuilt c-n-ca
  107     106     110         1       127.080      5.330416E+02     ; C-N-C, prebuilt c-n-c
  106     107     108         1       115.250      5.665136E+02     ; N-C-C, prebuilt ca-c-n
  106     107     131         1       123.050      6.209056E+02     ; N-C-O, prebuilt n-c-o
  108     107     131         1       122.600      5.748816E+02     ; C-C-O, prebuilt ca-c-o
  107     108     109         1       120.330      5.380624E+02     ; C-C-C, prebuilt c-ca-ca
  107     108     112         1       120.330      5.380624E+02     ; C-C-C, prebuilt c-ca-ca
  109     108     112         1       120.020      5.573088E+02     ; C-C-C, prebuilt ca-ca-ca
  108     109     110         1       120.330      5.380624E+02     ; C-C-C, prebuilt c-ca-ca
  108     109     115         1       120.020      5.573088E+02     ; C-C-C, prebuilt ca-ca-ca
  110     109     115         1       120.330      5.380624E+02     ; C-C-C, prebuilt c-ca-ca
  106     110     109         1       115.250      5.665136E+02     ; N-C-C, prebuilt ca-c-n
  106     110     111         1       123.050      6.209056E+02     ; N-C-O, prebuilt n-c-o
  109     110     111         1       122.600      5.748816E+02     ; C-C-O, prebuilt ca-c-o
  108     112     113         1       120.020      5.573088E+02     ; C-C-C, prebuilt ca-ca-ca
  108     112     171         1       119.880      4.033376E+02     ; C-C-H, prebuilt ca-ca-ha
  113     112     171         1       119.880      4.033376E+02     ; C-C-H, prebuilt ca-ca-ha
  112     113     114         1       120.020      5.573088E+02     ; C-C-C, prebuilt ca-ca-ca
  112     113     122         1       120.770      5.313680E+02     ; C-C-C, prebuilt c3-ca-ca
  114     113     122         1       120.770      5.313680E+02     ; C-C-C, prebuilt c3-ca-ca
  113     114     115         1       120.020      5.573088E+02     ; C-C-C, prebuilt ca-ca-ca
  113     114     172         1       119.880      4.033376E+02     ; C-C-H, prebuilt ca-ca-ha
  115     114     172         1       119.880      4.033376E+02     ; C-C-H, prebuilt ca-ca-ha
  109     115     114         1       120.020      5.573088E+02     ; C-C-C, prebuilt ca-ca-ca
  109     115     173         1       119.880      4.033376E+02     ; C-C-H, prebuilt ca-ca-ha
  114     115     173         1       119.880      4.033376E+02     ; C-C-H, prebuilt ca-ca-ha
  117     116     119         1       120.020      5.573088E+02     ; C-C-C, prebuilt ca-ca-ca
  117     116     122         1       120.770      5.313680E+02     ; C-C-C, prebuilt c3-ca-ca
  119     116     122         1       120.770      5.313680E+02     ; C-C-C, prebuilt c3-ca-ca
  116     117     118         1       120.020      5.573088E+02     ; C-C-C, prebuilt ca-ca-ca
  116     117     175         1       119.880      4.033376E+02     ; C-C-H, prebuilt ca-ca-ha
  118     117     175         1       119.880      4.033376E+02     ; C-C-H, prebuilt ca-ca-ha
  117     118     120         1       120.020      5.573088E+02     ; C-C-C, prebuilt ca-ca-ca
  117     118     132         1       120.330      5.380624E+02     ; C-C-C, prebuilt c-ca-ca
  120     118     132         1       120.330      5.380624E+02     ; C-C-C, prebuilt c-ca-ca
  116     119     121         1       120.020      5.573088E+02     ; C-C-C, prebuilt ca-ca-ca
  116     119     174         1       119.880      4.033376E+02     ; C-C-H, prebuilt ca-ca-ha
  121     119     174         1       119.880      4.033376E+02     ; C-C-H, prebuilt ca-ca-ha
  118     120     121         1       120.020      5.573088E+02     ; C-C-C, prebuilt ca-ca-ca
  118     120     134         1       120.330      5.380624E+02     ; C-C-C, prebuilt c-ca-ca
  121     120     134         1       120.330      5.380624E+02     ; C-C-C, prebuilt c-ca-ca
  119     121     120         1       120.020      5.573088E+02     ; C-C-C, prebuilt ca-ca-ca
  119     121     176         1       119.880      4.033376E+02     ; C-C-H, prebuilt ca-ca-ha
  120     121     176         1       119.880      4.033376E+02     ; C-C-H, prebuilt ca-ca-ha
  113     122     116         1       112.240      5.322048E+02     ; C-C-C, prebuilt ca-c3-ca
  113     122     123         1       112.070      5.280208E+02     ; C-C-C, prebuilt c3-c3-ca
  113     122     127         1       112.070      5.280208E+02     ; C-C-C, prebuilt c3-c3-ca
  116     122     123         1       112.070      5.280208E+02     ; C-C-C, prebuilt c3-c3-ca
  116     122     127         1       112.070      5.280208E+02     ; C-C-C, prebuilt c3-c3-ca
  123     122     127         1       111.510      5.263472E+02     ; C-C-C, prebuilt c3-c3-c3
  122     123     124         1       109.240      5.531248E+02     ; C-C-F, prebuilt c3-c3-f
  122     123     125         1       109.240      5.531248E+02     ; C-C-F, prebuilt c3-c3-f
  122     123     126         1       109.240      5.531248E+02     ; C-C-F, prebuilt c3-c3-f
  124     123     125         1       107.360      5.932912E+02     ; F-C-F, prebuilt f-c3-f
  124     123     126         1       107.360      5.932912E+02     ; F-C-F, prebuilt f-c3-f
  125     123     126         1       107.360      5.932912E+02     ; F-C-F, prebuilt f-c3-f
  122     127     128         1       109.240      5.531248E+02     ; C-C-F, prebuilt c3-c3-f
  122     127     129         1       109.240      5.531248E+02     ; C-C-F, prebuilt c3-c3-f
  122     127     130         1       109.240      5.531248E+02     ; C-C-F, prebuilt c3-c3-f
  128     127     129         1       107.360      5.932912E+02     ; F-C-F, prebuilt f-c3-f
  128     127     130         1       107.360      5.932912E+02     ; F-C-F, prebuilt f-c3-f
  129     127     130         1       107.360      5.932912E+02     ; F-C-F, prebuilt f-c3-f
  118     132     133         1       115.250      5.665136E+02     ; C-C-N, prebuilt ca-c-n
  118     132     177         1       122.600      5.748816E+02     ; C-C-O, prebuilt ca-c-o
  133     132     177         1       123.050      6.209056E+02     ; N-C-O, prebuilt n-c-o
  132     133     134         1       127.080      5.330416E+02     ; C-N-C, prebuilt c-n-c
  132     133     249         1       123.710      5.338784E+02     ; C-N-C, prebuilt c-n-ca
  134     133     249         1       123.710      5.338784E+02     ; C-N-C, prebuilt c-n-ca
  120     134     133         1       115.250      5.665136E+02     ; C-C-N, prebuilt ca-c-n
  120     134     135         1       122.600      5.748816E+02     ; C-C-O, prebuilt ca-c-o
  133     134     135         1       123.050      6.209056E+02     ; N-C-O, prebuilt n-c-o
   99     136     137         1       120.600      5.589824E+02     ; C-C-C, prebuilt c2-ca-ca
   99     136     138         1       120.600      5.589824E+02     ; C-C-C, prebuilt c2-ca-ca
  137     136     138         1       120.020      5.573088E+02     ; C-C-C, prebuilt ca-ca-ca
  136     137     139         1       120.020      5.573088E+02     ; C-C-C, prebuilt ca-ca-ca
  136     137     178         1       119.880      4.033376E+02     ; C-C-H, prebuilt ca-ca-ha
  139     137     178         1       119.880      4.033376E+02     ; C-C-H, prebuilt ca-ca-ha
  136     138     140         1       120.020      5.573088E+02     ; C-C-C, prebuilt ca-ca-ca
  136     138     180         1       119.880      4.033376E+02     ; C-C-H, prebuilt ca-ca-ha
  140     138     180         1       119.880      4.033376E+02     ; C-C-H, prebuilt ca-ca-ha
  137     139     141         1       120.020      5.573088E+02     ; C-C-C, prebuilt ca-ca-ca
  137     139     179         1       119.880      4.033376E+02     ; C-C-H, prebuilt ca-ca-ha
  141     139     179         1       119.880      4.033376E+02     ; C-C-H, prebuilt ca-ca-ha
  138     140     141         1       120.020      5.573088E+02     ; C-C-C, prebuilt ca-ca-ca
  138     140     186         1       119.880      4.033376E+02     ; C-C-H, prebuilt ca-ca-ha
  141     140     186         1       119.880      4.033376E+02     ; C-C-H, prebuilt ca-ca-ha
  139     141     140         1       120.020      5.573088E+02     ; C-C-C, prebuilt ca-ca-ca
  139     141     142         1       120.600      5.589824E+02     ; C-C-C, prebuilt c2-ca-ca
  140     141     142         1       120.600      5.589824E+02     ; C-C-C, prebuilt c2-ca-ca
  141     142     143         1       128.290      5.000000E+02     ; C-C-N (ca-c2-na) missing and simply guessed
  141     142     144         1       125.742      5.000000E+02     ; C-C-N (ca-c2-na) missing and simply guessed
  143     142     144         1       109.330      6.117008E+02     ; N-C-N, prebuilt na-c2-na
  142     143     145         1       110.370      5.631664E+02     ; C-N-C, prebuilt c2-na-c2
  142     143     151         1       124.970      5.322048E+02     ; C-N-C, prebuilt c2-na-ca
  145     143     151         1       124.970      5.322048E+02     ; C-N-C, prebuilt c2-na-ca
  142     144     146         1       110.370      5.631664E+02     ; C-N-C, prebuilt c2-na-c2
  142     144     147         1       117.200      5.347152E+02     ; C-N-C, prebuilt c2-na-c3
  146     144     147         1       117.200      5.347152E+02     ; C-N-C, prebuilt c2-na-c3
  143     145     146         1       121.940      5.782288E+02     ; N-C-C, prebuilt c2-c2-na
  143     145     185         1       112.970      4.250944E+02     ; N-C-H, prebuilt h4-c2-na
  146     145     185         1       122.670      4.133792E+02     ; C-C-H, prebuilt c2-c2-h4
  144     146     145         1       121.940      5.782288E+02     ; N-C-C, prebuilt c2-c2-na
  144     146     157         1       117.200      5.539616E+02     ; N-C-C, prebuilt c3-c2-na
  145     146     157         1       123.630      5.363888E+02     ; C-C-C, prebuilt c2-c2-c3
  144     147     148         1       108.780      4.167264E+02     ; N-C-H, prebuilt h1-c3-na
  144     147     149         1       108.780      4.167264E+02     ; N-C-H, prebuilt h1-c3-na
  144     147     150         1       108.780      4.167264E+02     ; N-C-H, prebuilt h1-c3-na
  148     147     149         1       108.460      3.280256E+02     ; H-C-H, prebuilt h1-c3-h1
  148     147     150         1       108.460      3.280256E+02     ; H-C-H, prebuilt h1-c3-h1
  149     147     150         1       108.460      3.280256E+02     ; H-C-H, prebuilt h1-c3-h1
  143     151     152         1       118.340      5.782288E+02     ; N-C-C, prebuilt ca-ca-na
  143     151     156         1       118.340      5.782288E+02     ; N-C-C, prebuilt ca-ca-na
  152     151     156         1       120.020      5.573088E+02     ; C-C-C, prebuilt ca-ca-ca
  151     152     153         1       120.020      5.573088E+02     ; C-C-C, prebuilt ca-ca-ca
  151     152     182         1       119.880      4.033376E+02     ; C-C-H, prebuilt ca-ca-ha
  153     152     182         1       119.880      4.033376E+02     ; C-C-H, prebuilt ca-ca-ha
  152     153     154         1       120.020      5.573088E+02     ; C-C-C, prebuilt ca-ca-ca
  152     153     181         1       119.880      4.033376E+02     ; C-C-H, prebuilt ca-ca-ha
  154     153     181         1       119.880      4.033376E+02     ; C-C-H, prebuilt ca-ca-ha
   37     154     153         1       120.190      5.681872E+02     ; N-C-C, prebuilt ca-ca-n
   37     154     155         1       120.190      5.681872E+02     ; N-C-C, prebuilt ca-ca-n
  153     154     155         1       120.020      5.573088E+02     ; C-C-C, prebuilt ca-ca-ca
  154     155     156         1       120.020      5.573088E+02     ; C-C-C, prebuilt ca-ca-ca
  154     155     183         1       119.880      4.033376E+02     ; C-C-H, prebuilt ca-ca-ha
  156     155     183         1       119.880      4.033376E+02     ; C-C-H, prebuilt ca-ca-ha
  151     156     155         1       120.020      5.573088E+02     ; C-C-C, prebuilt ca-ca-ca
  151     156     184         1       119.880      4.033376E+02     ; C-C-H, prebuilt ca-ca-ha
  155     156     184         1       119.880      4.033376E+02     ; C-C-H, prebuilt ca-ca-ha
  146     157     158         1       110.760      5.556352E+02     ; C-C-F, prebuilt c2-c3-f
  146     157     159         1       110.760      5.556352E+02     ; C-C-F, prebuilt c2-c3-f
  146     157     160         1       110.760      5.556352E+02     ; C-C-F, prebuilt c2-c3-f
  158     157     159         1       107.360      5.932912E+02     ; F-C-F, prebuilt f-c3-f
  158     157     160         1       107.360      5.932912E+02     ; F-C-F, prebuilt f-c3-f
  159     157     160         1       107.360      5.932912E+02     ; F-C-F, prebuilt f-c3-f
   98     161     162         1       121.940      5.782288E+02     ; N-C-C, prebuilt c2-c2-na
   98     161     166         1       112.970      4.250944E+02     ; N-C-H, prebuilt h4-c2-na
  162     161     166         1       122.670      4.133792E+02     ; C-C-H, prebuilt c2-c2-h4
   97     162     161         1       121.940      5.782288E+02     ; N-C-C, prebuilt c2-c2-na
   97     162     163         1       117.200      5.539616E+02     ; N-C-C, prebuilt c3-c2-na
  161     162     163         1       123.630      5.363888E+02     ; C-C-C, prebuilt c2-c2-c3
  162     163     164         1       110.760      5.556352E+02     ; C-C-F, prebuilt c2-c3-f
  162     163     165         1       110.760      5.556352E+02     ; C-C-F, prebuilt c2-c3-f
  162     163     187         1       110.760      5.556352E+02     ; C-C-F, prebuilt c2-c3-f
  164     163     165         1       107.360      5.932912E+02     ; F-C-F, prebuilt f-c3-f
  164     163     187         1       107.360      5.932912E+02     ; F-C-F, prebuilt f-c3-f
  165     163     187         1       107.360      5.932912E+02     ; F-C-F, prebuilt f-c3-f
   97     188     189         1       108.780      4.167264E+02     ; N-C-H, prebuilt h1-c3-na
   97     188     190         1       108.780      4.167264E+02     ; N-C-H, prebuilt h1-c3-na
   97     188     191         1       108.780      4.167264E+02     ; N-C-H, prebuilt h1-c3-na
  189     188     190         1       108.460      3.280256E+02     ; H-C-H, prebuilt h1-c3-h1
  189     188     191         1       108.460      3.280256E+02     ; H-C-H, prebuilt h1-c3-h1
  190     188     191         1       108.460      3.280256E+02     ; H-C-H, prebuilt h1-c3-h1
  194     192     257         1       110.370      5.631664E+02     ; C-N-C, prebuilt c2-na-c2
  194     192     283         1       117.200      5.347152E+02     ; C-N-C, prebuilt c2-na-c3
  257     192     283         1       117.200      5.347152E+02     ; C-N-C, prebuilt c2-na-c3
  194     193     195         1       124.970      5.322048E+02     ; C-N-C, prebuilt c2-na-ca
  194     193     256         1       110.370      5.631664E+02     ; C-N-C, prebuilt c2-na-c2
  195     193     256         1       124.970      5.322048E+02     ; C-N-C, prebuilt c2-na-ca
  192     194     193         1       109.330      6.117008E+02     ; N-C-N, prebuilt na-c2-na
  192     194     231         1       124.926      5.000000E+02     ; N-C-C (na-c2-ca) missing and simply guessed
  193     194     231         1       128.430      5.000000E+02     ; N-C-C (na-c2-ca) missing and simply guessed
  193     195     196         1       118.340      5.782288E+02     ; N-C-C, prebuilt ca-ca-na
  193     195     200         1       118.340      5.782288E+02     ; N-C-C, prebuilt ca-ca-na
  196     195     200         1       120.020      5.573088E+02     ; C-C-C, prebuilt ca-ca-ca
  195     196     197         1       120.020      5.573088E+02     ; C-C-C, prebuilt ca-ca-ca
  195     196     262         1       119.880      4.033376E+02     ; C-C-H, prebuilt ca-ca-ha
  197     196     262         1       119.880      4.033376E+02     ; C-C-H, prebuilt ca-ca-ha
  196     197     198         1       120.020      5.573088E+02     ; C-C-C, prebuilt ca-ca-ca
  196     197     263         1       119.880      4.033376E+02     ; C-C-H, prebuilt ca-ca-ha
  198     197     263         1       119.880      4.033376E+02     ; C-C-H, prebuilt ca-ca-ha
  197     198     199         1       120.020      5.573088E+02     ; C-C-C, prebuilt ca-ca-ca
  197     198     201         1       120.190      5.681872E+02     ; C-C-N, prebuilt ca-ca-n
  199     198     201         1       120.190      5.681872E+02     ; C-C-N, prebuilt ca-ca-n
  198     199     200         1       120.020      5.573088E+02     ; C-C-C, prebuilt ca-ca-ca
  198     199     265         1       119.880      4.033376E+02     ; C-C-H, prebuilt ca-ca-ha
  200     199     265         1       119.880      4.033376E+02     ; C-C-H, prebuilt ca-ca-ha
  195     200     199         1       120.020      5.573088E+02     ; C-C-C, prebuilt ca-ca-ca
  195     200     264         1       119.880      4.033376E+02     ; C-C-H, prebuilt ca-ca-ha
  199     200     264         1       119.880      4.033376E+02     ; C-C-H, prebuilt ca-ca-ha
  198     201     202         1       123.710      5.338784E+02     ; C-N-C, prebuilt c-n-ca
  198     201     205         1       123.710      5.338784E+02     ; C-N-C, prebuilt c-n-ca
  202     201     205         1       127.080      5.330416E+02     ; C-N-C, prebuilt c-n-c
  201     202     203         1       115.250      5.665136E+02     ; N-C-C, prebuilt ca-c-n
  201     202     226         1       123.050      6.209056E+02     ; N-C-O, prebuilt n-c-o
  203     202     226         1       122.600      5.748816E+02     ; C-C-O, prebuilt ca-c-o
  202     203     204         1       120.330      5.380624E+02     ; C-C-C, prebuilt c-ca-ca
  202     203     207         1       120.330      5.380624E+02     ; C-C-C, prebuilt c-ca-ca
  204     203     207         1       120.020      5.573088E+02     ; C-C-C, prebuilt ca-ca-ca
  203     204     205         1       120.330      5.380624E+02     ; C-C-C, prebuilt c-ca-ca
  203     204     210         1       120.020      5.573088E+02     ; C-C-C, prebuilt ca-ca-ca
  205     204     210         1       120.330      5.380624E+02     ; C-C-C, prebuilt c-ca-ca
  201     205     204         1       115.250      5.665136E+02     ; N-C-C, prebuilt ca-c-n
  201     205     206         1       123.050      6.209056E+02     ; N-C-O, prebuilt n-c-o
  204     205     206         1       122.600      5.748816E+02     ; C-C-O, prebuilt ca-c-o
  203     207     208         1       120.020      5.573088E+02     ; C-C-C, prebuilt ca-ca-ca
  203     207     266         1       119.880      4.033376E+02     ; C-C-H, prebuilt ca-ca-ha
  208     207     266         1       119.880      4.033376E+02     ; C-C-H, prebuilt ca-ca-ha
  207     208     209         1       120.020      5.573088E+02     ; C-C-C, prebuilt ca-ca-ca
  207     208     217         1       120.770      5.313680E+02     ; C-C-C, prebuilt c3-ca-ca
  209     208     217         1       120.770      5.313680E+02     ; C-C-C, prebuilt c3-ca-ca
  208     209     210         1       120.020      5.573088E+02     ; C-C-C, prebuilt ca-ca-ca
  208     209     267         1       119.880      4.033376E+02     ; C-C-H, prebuilt ca-ca-ha
  210     209     267         1       119.880      4.033376E+02     ; C-C-H, prebuilt ca-ca-ha
  204     210     209         1       120.020      5.573088E+02     ; C-C-C, prebuilt ca-ca-ca
  204     210     268         1       119.880      4.033376E+02     ; C-C-H, prebuilt ca-ca-ha
  209     210     268         1       119.880      4.033376E+02     ; C-C-H, prebuilt ca-ca-ha
  212     211     214         1       120.020      5.573088E+02     ; C-C-C, prebuilt ca-ca-ca
  212     211     217         1       120.770      5.313680E+02     ; C-C-C, prebuilt c3-ca-ca
  214     211     217         1       120.770      5.313680E+02     ; C-C-C, prebuilt c3-ca-ca
  211     212     213         1       120.020      5.573088E+02     ; C-C-C, prebuilt ca-ca-ca
  211     212     270         1       119.880      4.033376E+02     ; C-C-H, prebuilt ca-ca-ha
  213     212     270         1       119.880      4.033376E+02     ; C-C-H, prebuilt ca-ca-ha
  212     213     215         1       120.020      5.573088E+02     ; C-C-C, prebuilt ca-ca-ca
  212     213     227         1       120.330      5.380624E+02     ; C-C-C, prebuilt c-ca-ca
  215     213     227         1       120.330      5.380624E+02     ; C-C-C, prebuilt c-ca-ca
  211     214     216         1       120.020      5.573088E+02     ; C-C-C, prebuilt ca-ca-ca
  211     214     269         1       119.880      4.033376E+02     ; C-C-H, prebuilt ca-ca-ha
  216     214     269         1       119.880      4.033376E+02     ; C-C-H, prebuilt ca-ca-ha
  213     215     216         1       120.020      5.573088E+02     ; C-C-C, prebuilt ca-ca-ca
  213     215     229         1       120.330      5.380624E+02     ; C-C-C, prebuilt c-ca-ca
  216     215     229         1       120.330      5.380624E+02     ; C-C-C, prebuilt c-ca-ca
  214     216     215         1       120.020      5.573088E+02     ; C-C-C, prebuilt ca-ca-ca
  214     216     271         1       119.880      4.033376E+02     ; C-C-H, prebuilt ca-ca-ha
  215     216     271         1       119.880      4.033376E+02     ; C-C-H, prebuilt ca-ca-ha
  208     217     211         1       112.240      5.322048E+02     ; C-C-C, prebuilt ca-c3-ca
  208     217     218         1       112.070      5.280208E+02     ; C-C-C, prebuilt c3-c3-ca
  208     217     222         1       112.070      5.280208E+02     ; C-C-C, prebuilt c3-c3-ca
  211     217     218         1       112.070      5.280208E+02     ; C-C-C, prebuilt c3-c3-ca
  211     217     222         1       112.070      5.280208E+02     ; C-C-C, prebuilt c3-c3-ca
  218     217     222         1       111.510      5.263472E+02     ; C-C-C, prebuilt c3-c3-c3
  217     218     219         1       109.240      5.531248E+02     ; C-C-F, prebuilt c3-c3-f
  217     218     220         1       109.240      5.531248E+02     ; C-C-F, prebuilt c3-c3-f
  217     218     221         1       109.240      5.531248E+02     ; C-C-F, prebuilt c3-c3-f
  219     218     220         1       107.360      5.932912E+02     ; F-C-F, prebuilt f-c3-f
  219     218     221         1       107.360      5.932912E+02     ; F-C-F, prebuilt f-c3-f
  220     218     221         1       107.360      5.932912E+02     ; F-C-F, prebuilt f-c3-f
  217     222     223         1       109.240      5.531248E+02     ; C-C-F, prebuilt c3-c3-f
  217     222     224         1       109.240      5.531248E+02     ; C-C-F, prebuilt c3-c3-f
  217     222     225         1       109.240      5.531248E+02     ; C-C-F, prebuilt c3-c3-f
  223     222     224         1       107.360      5.932912E+02     ; F-C-F, prebuilt f-c3-f
  223     222     225         1       107.360      5.932912E+02     ; F-C-F, prebuilt f-c3-f
  224     222     225         1       107.360      5.932912E+02     ; F-C-F, prebuilt f-c3-f
  213     227     228         1       115.250      5.665136E+02     ; C-C-N, prebuilt ca-c-n
  213     227     272         1       122.600      5.748816E+02     ; C-C-O, prebuilt ca-c-o
  228     227     272         1       123.050      6.209056E+02     ; N-C-O, prebuilt n-c-o
  227     228     229         1       127.080      5.330416E+02     ; C-N-C, prebuilt c-n-c
  227     228     344         1       123.710      5.338784E+02     ; C-N-C, prebuilt c-n-ca
  229     228     344         1       123.710      5.338784E+02     ; C-N-C, prebuilt c-n-ca
  215     229     228         1       115.250      5.665136E+02     ; C-C-N, prebuilt ca-c-n
  215     229     230         1       122.600      5.748816E+02     ; C-C-O, prebuilt ca-c-o
  228     229     230         1       123.050      6.209056E+02     ; N-C-O, prebuilt n-c-o
  194     231     232         1       120.600      5.589824E+02     ; C-C-C, prebuilt c2-ca-ca
  194     231     233         1       120.600      5.589824E+02     ; C-C-C, prebuilt c2-ca-ca
  232     231     233         1       120.020      5.573088E+02     ; C-C-C, prebuilt ca-ca-ca
  231     232     234         1       120.020      5.573088E+02     ; C-C-C, prebuilt ca-ca-ca
  231     232     273         1       119.880      4.033376E+02     ; C-C-H, prebuilt ca-ca-ha
  234     232     273         1       119.880      4.033376E+02     ; C-C-H, prebuilt ca-ca-ha
  231     233     235         1       120.020      5.573088E+02     ; C-C-C, prebuilt ca-ca-ca
  231     233     275         1       119.880      4.033376E+02     ; C-C-H, prebuilt ca-ca-ha
  235     233     275         1       119.880      4.033376E+02     ; C-C-H, prebuilt ca-ca-ha
  232     234     236         1       120.020      5.573088E+02     ; C-C-C, prebuilt ca-ca-ca
  232     234     274         1       119.880      4.033376E+02     ; C-C-H, prebuilt ca-ca-ha
  236     234     274         1       119.880      4.033376E+02     ; C-C-H, prebuilt ca-ca-ha
  233     235     236         1       120.020      5.573088E+02     ; C-C-C, prebuilt ca-ca-ca
  233     235     281         1       119.880      4.033376E+02     ; C-C-H, prebuilt ca-ca-ha
  236     235     281         1       119.880      4.033376E+02     ; C-C-H, prebuilt ca-ca-ha
  234     236     235         1       120.020      5.573088E+02     ; C-C-C, prebuilt ca-ca-ca
  234     236     237         1       120.600      5.589824E+02     ; C-C-C, prebuilt c2-ca-ca
  235     236     237         1       120.600      5.589824E+02     ; C-C-C, prebuilt c2-ca-ca
  236     237     238         1       129.699      5.000000E+02     ; C-C-N (ca-c2-na) missing and simply guessed
  236     237     239         1       124.500      5.000000E+02     ; C-C-N (ca-c2-na) missing and simply guessed
  238     237     239         1       109.330      6.117008E+02     ; N-C-N, prebuilt na-c2-na
  237     238     240         1       110.370      5.631664E+02     ; C-N-C, prebuilt c2-na-c2
  237     238     246         1       124.970      5.322048E+02     ; C-N-C, prebuilt c2-na-ca
  240     238     246         1       124.970      5.322048E+02     ; C-N-C, prebuilt c2-na-ca
  237     239     241         1       110.370      5.631664E+02     ; C-N-C, prebuilt c2-na-c2
  237     239     242         1       117.200      5.347152E+02     ; C-N-C, prebuilt c2-na-c3
  241     239     242         1       117.200      5.347152E+02     ; C-N-C, prebuilt c2-na-c3
  238     240     241         1       121.940      5.782288E+02     ; N-C-C, prebuilt c2-c2-na
  238     240     280         1       112.970      4.250944E+02     ; N-C-H, prebuilt h4-c2-na
  241     240     280         1       122.670      4.133792E+02     ; C-C-H, prebuilt c2-c2-h4
  239     241     240         1       121.940      5.782288E+02     ; N-C-C, prebuilt c2-c2-na
  239     241     252         1       117.200      5.539616E+02     ; N-C-C, prebuilt c3-c2-na
  240     241     252         1       123.630      5.363888E+02     ; C-C-C, prebuilt c2-c2-c3
  239     242     243         1       108.780      4.167264E+02     ; N-C-H, prebuilt h1-c3-na
  239     242     244         1       108.780      4.167264E+02     ; N-C-H, prebuilt h1-c3-na
  239     242     245         1       108.780      4.167264E+02     ; N-C-H, prebuilt h1-c3-na
  243     242     244         1       108.460      3.280256E+02     ; H-C-H, prebuilt h1-c3-h1
  243     242     245         1       108.460      3.280256E+02     ; H-C-H, prebuilt h1-c3-h1
  244     242     245         1       108.460      3.280256E+02     ; H-C-H, prebuilt h1-c3-h1
  238     246     247         1       118.340      5.782288E+02     ; N-C-C, prebuilt ca-ca-na
  238     246     251         1       118.340      5.782288E+02     ; N-C-C, prebuilt ca-ca-na
  247     246     251         1       120.020      5.573088E+02     ; C-C-C, prebuilt ca-ca-ca
  246     247     248         1       120.020      5.573088E+02     ; C-C-C, prebuilt ca-ca-ca
  246     247     277         1       119.880      4.033376E+02     ; C-C-H, prebuilt ca-ca-ha
  248     247     277         1       119.880      4.033376E+02     ; C-C-H, prebuilt ca-ca-ha
  247     248     249         1       120.020      5.573088E+02     ; C-C-C, prebuilt ca-ca-ca
  247     248     276         1       119.880      4.033376E+02     ; C-C-H, prebuilt ca-ca-ha
  249     248     276         1       119.880      4.033376E+02     ; C-C-H, prebuilt ca-ca-ha
  133     249     248         1       120.190      5.681872E+02     ; N-C-C, prebuilt ca-ca-n
  133     249     250         1       120.190      5.681872E+02     ; N-C-C, prebuilt ca-ca-n
  248     249     250         1       120.020      5.573088E+02     ; C-C-C, prebuilt ca-ca-ca
  249     250     251         1       120.020      5.573088E+02     ; C-C-C, prebuilt ca-ca-ca
  249     250     278         1       119.880      4.033376E+02     ; C-C-H, prebuilt ca-ca-ha
  251     250     278         1       119.880      4.033376E+02     ; C-C-H, prebuilt ca-ca-ha
  246     251     250         1       120.020      5.573088E+02     ; C-C-C, prebuilt ca-ca-ca
  246     251     279         1       119.880      4.033376E+02     ; C-C-H, prebuilt ca-ca-ha
  250     251     279         1       119.880      4.033376E+02     ; C-C-H, prebuilt ca-ca-ha
  241     252     253         1       110.760      5.556352E+02     ; C-C-F, prebuilt c2-c3-f
  241     252     254         1       110.760      5.556352E+02     ; C-C-F, prebuilt c2-c3-f
  241     252     255         1       110.760      5.556352E+02     ; C-C-F, prebuilt c2-c3-f
  253     252     254         1       107.360      5.932912E+02     ; F-C-F, prebuilt f-c3-f
  253     252     255         1       107.360      5.932912E+02     ; F-C-F, prebuilt f-c3-f
  254     252     255         1       107.360      5.932912E+02     ; F-C-F, prebuilt f-c3-f
  193     256     257         1       121.940      5.782288E+02     ; N-C-C, prebuilt c2-c2-na
  193     256     261         1       112.970      4.250944E+02     ; N-C-H, prebuilt h4-c2-na
  257     256     261         1       122.670      4.133792E+02     ; C-C-H, prebuilt c2-c2-h4
  192     257     256         1       121.940      5.782288E+02     ; N-C-C, prebuilt c2-c2-na
  192     257     258         1       117.200      5.539616E+02     ; N-C-C, prebuilt c3-c2-na
  256     257     258         1       123.630      5.363888E+02     ; C-C-C, prebuilt c2-c2-c3
  257     258     259         1       110.760      5.556352E+02     ; C-C-F, prebuilt c2-c3-f
  257     258     260         1       110.760      5.556352E+02     ; C-C-F, prebuilt c2-c3-f
  257     258     282         1       110.760      5.556352E+02     ; C-C-F, prebuilt c2-c3-f
  259     258     260         1       107.360      5.932912E+02     ; F-C-F, prebuilt f-c3-f
  259     258     282         1       107.360      5.932912E+02     ; F-C-F, prebuilt f-c3-f
  260     258     282         1       107.360      5.932912E+02     ; F-C-F, prebuilt f-c3-f
  192     283     284         1       108.780      4.167264E+02     ; N-C-H, prebuilt h1-c3-na
  192     283     285         1       108.780      4.167264E+02     ; N-C-H, prebuilt h1-c3-na
  192     283     286         1       108.780      4.167264E+02     ; N-C-H, prebuilt h1-c3-na
  284     283     285         1       108.460      3.280256E+02     ; H-C-H, prebuilt h1-c3-h1
  284     283     286         1       108.460      3.280256E+02     ; H-C-H, prebuilt h1-c3-h1
  285     283     286         1       108.460      3.280256E+02     ; H-C-H, prebuilt h1-c3-h1
  289     287     352         1       110.370      5.631664E+02     ; C-N-C, prebuilt c2-na-c2
  289     287     378         1       117.200      5.347152E+02     ; C-N-C, prebuilt c2-na-c3
  352     287     378         1       117.200      5.347152E+02     ; C-N-C, prebuilt c2-na-c3
  289     288     290         1       124.970      5.322048E+02     ; C-N-C, prebuilt c2-na-ca
  289     288     351         1       110.370      5.631664E+02     ; C-N-C, prebuilt c2-na-c2
  290     288     351         1       124.970      5.322048E+02     ; C-N-C, prebuilt c2-na-ca
  287     289     288         1       109.330      6.117008E+02     ; N-C-N, prebuilt na-c2-na
  287     289     326         1       125.348      5.000000E+02     ; N-C-C (na-c2-ca) missing and simply guessed
  288     289     326         1       128.348      5.000000E+02     ; N-C-C (na-c2-ca) missing and simply guessed
  288     290     291         1       118.340      5.782288E+02     ; N-C-C, prebuilt ca-ca-na
  288     290     295         1       118.340      5.782288E+02     ; N-C-C, prebuilt ca-ca-na
  291     290     295         1       120.020      5.573088E+02     ; C-C-C, prebuilt ca-ca-ca
  290     291     292         1       120.020      5.573088E+02     ; C-C-C, prebuilt ca-ca-ca
  290     291     357         1       119.880      4.033376E+02     ; C-C-H, prebuilt ca-ca-ha
  292     291     357         1       119.880      4.033376E+02     ; C-C-H, prebuilt ca-ca-ha
  291     292     293         1       120.020      5.573088E+02     ; C-C-C, prebuilt ca-ca-ca
  291     292     358         1       119.880      4.033376E+02     ; C-C-H, prebuilt ca-ca-ha
  293     292     358         1       119.880      4.033376E+02     ; C-C-H, prebuilt ca-ca-ha
  292     293     294         1       120.020      5.573088E+02     ; C-C-C, prebuilt ca-ca-ca
  292     293     296         1       120.190      5.681872E+02     ; C-C-N, prebuilt ca-ca-n
  294     293     296         1       120.190      5.681872E+02     ; C-C-N, prebuilt ca-ca-n
  293     294     295         1       120.020      5.573088E+02     ; C-C-C, prebuilt ca-ca-ca
  293     294     360         1       119.880      4.033376E+02     ; C-C-H, prebuilt ca-ca-ha
  295     294     360         1       119.880      4.033376E+02     ; C-C-H, prebuilt ca-ca-ha
  290     295     294         1       120.020      5.573088E+02     ; C-C-C, prebuilt ca-ca-ca
  290     295     359         1       119.880      4.033376E+02     ; C-C-H, prebuilt ca-ca-ha
  294     295     359         1       119.880      4.033376E+02     ; C-C-H, prebuilt ca-ca-ha
  293     296     297         1       123.710      5.338784E+02     ; C-N-C, prebuilt c-n-ca
  293     296     300         1       123.710      5.338784E+02     ; C-N-C, prebuilt c-n-ca
  297     296     300         1       127.080      5.330416E+02     ; C-N-C, prebuilt c-n-c
  296     297     298         1       115.250      5.665136E+02     ; N-C-C, prebuilt ca-c-n
  296     297     321         1       123.050      6.209056E+02     ; N-C-O, prebuilt n-c-o
  298     297     321         1       122.600      5.748816E+02     ; C-C-O, prebuilt ca-c-o
  297     298     299         1       120.330      5.380624E+02     ; C-C-C, prebuilt c-ca-ca
  297     298     302         1       120.330      5.380624E+02     ; C-C-C, prebuilt c-ca-ca
  299     298     302         1       120.020      5.573088E+02     ; C-C-C, prebuilt ca-ca-ca
  298     299     300         1       120.330      5.380624E+02     ; C-C-C, prebuilt c-ca-ca
  298     299     305         1       120.020      5.573088E+02     ; C-C-C, prebuilt ca-ca-ca
  300     299     305         1       120.330      5.380624E+02     ; C-C-C, prebuilt c-ca-ca
  296     300     299         1       115.250      5.665136E+02     ; N-C-C, prebuilt ca-c-n
  296     300     301         1       123.050      6.209056E+02     ; N-C-O, prebuilt n-c-o
  299     300     301         1       122.600      5.748816E+02     ; C-C-O, prebuilt ca-c-o
  298     302     303         1       120.020      5.573088E+02     ; C-C-C, prebuilt ca-ca-ca
  298     302     361         1       119.880      4.033376E+02     ; C-C-H, prebuilt ca-ca-ha
  303     302     361         1       119.880      4.033376E+02     ; C-C-H, prebuilt ca-ca-ha
  302     303     304         1       120.020      5.573088E+02     ; C-C-C, prebuilt ca-ca-ca
  302     303     312         1       120.770      5.313680E+02     ; C-C-C, prebuilt c3-ca-ca
  304     303     312         1       120.770      5.313680E+02     ; C-C-C, prebuilt c3-ca-ca
  303     304     305         1       120.020      5.573088E+02     ; C-C-C, prebuilt ca-ca-ca
  303     304     362         1       119.880      4.033376E+02     ; C-C-H, prebuilt ca-ca-ha
  305     304     362         1       119.880      4.033376E+02     ; C-C-H, prebuilt ca-ca-ha
  299     305     304         1       120.020      5.573088E+02     ; C-C-C, prebuilt ca-ca-ca
  299     305     363         1       119.880      4.033376E+02     ; C-C-H, prebuilt ca-ca-ha
  304     305     363         1       119.880      4.033376E+02     ; C-C-H, prebuilt ca-ca-ha
  307     306     309         1       120.020      5.573088E+02     ; C-C-C, prebuilt ca-ca-ca
  307     306     312         1       120.770      5.313680E+02     ; C-C-C, prebuilt c3-ca-ca
  309     306     312         1       120.770      5.313680E+02     ; C-C-C, prebuilt c3-ca-ca
  306     307     308         1       120.020      5.573088E+02     ; C-C-C, prebuilt ca-ca-ca
  306     307     365         1       119.880      4.033376E+02     ; C-C-H, prebuilt ca-ca-ha
  308     307     365         1       119.880      4.033376E+02     ; C-C-H, prebuilt ca-ca-ha
  307     308     310         1       120.020      5.573088E+02     ; C-C-C, prebuilt ca-ca-ca
  307     308     322         1       120.330      5.380624E+02     ; C-C-C, prebuilt c-ca-ca
  310     308     322         1       120.330      5.380624E+02     ; C-C-C, prebuilt c-ca-ca
  306     309     311         1       120.020      5.573088E+02     ; C-C-C, prebuilt ca-ca-ca
  306     309     364         1       119.880      4.033376E+02     ; C-C-H, prebuilt ca-ca-ha
  311     309     364         1       119.880      4.033376E+02     ; C-C-H, prebuilt ca-ca-ha
  308     310     311         1       120.020      5.573088E+02     ; C-C-C, prebuilt ca-ca-ca
  308     310     324         1       120.330      5.380624E+02     ; C-C-C, prebuilt c-ca-ca
  311     310     324         1       120.330      5.380624E+02     ; C-C-C, prebuilt c-ca-ca
  309     311     310         1       120.020      5.573088E+02     ; C-C-C, prebuilt ca-ca-ca
  309     311     366         1       119.880      4.033376E+02     ; C-C-H, prebuilt ca-ca-ha
  310     311     366         1       119.880      4.033376E+02     ; C-C-H, prebuilt ca-ca-ha
  303     312     306         1       112.240      5.322048E+02     ; C-C-C, prebuilt ca-c3-ca
  303     312     313         1       112.070      5.280208E+02     ; C-C-C, prebuilt c3-c3-ca
  303     312     317         1       112.070      5.280208E+02     ; C-C-C, prebuilt c3-c3-ca
  306     312     313         1       112.070      5.280208E+02     ; C-C-C, prebuilt c3-c3-ca
  306     312     317         1       112.070      5.280208E+02     ; C-C-C, prebuilt c3-c3-ca
  313     312     317         1       111.510      5.263472E+02     ; C-C-C, prebuilt c3-c3-c3
  312     313     314         1       109.240      5.531248E+02     ; C-C-F, prebuilt c3-c3-f
  312     313     315         1       109.240      5.531248E+02     ; C-C-F, prebuilt c3-c3-f
  312     313     316         1       109.240      5.531248E+02     ; C-C-F, prebuilt c3-c3-f
  314     313     315         1       107.360      5.932912E+02     ; F-C-F, prebuilt f-c3-f
  314     313     316         1       107.360      5.932912E+02     ; F-C-F, prebuilt f-c3-f
  315     313     316         1       107.360      5.932912E+02     ; F-C-F, prebuilt f-c3-f
  312     317     318         1       109.240      5.531248E+02     ; C-C-F, prebuilt c3-c3-f
  312     317     319         1       109.240      5.531248E+02     ; C-C-F, prebuilt c3-c3-f
  312     317     320         1       109.240      5.531248E+02     ; C-C-F, prebuilt c3-c3-f
  318     317     319         1       107.360      5.932912E+02     ; F-C-F, prebuilt f-c3-f
  318     317     320         1       107.360      5.932912E+02     ; F-C-F, prebuilt f-c3-f
  319     317     320         1       107.360      5.932912E+02     ; F-C-F, prebuilt f-c3-f
  308     322     323         1       115.250      5.665136E+02     ; C-C-N, prebuilt ca-c-n
  308     322     367         1       122.600      5.748816E+02     ; C-C-O, prebuilt ca-c-o
  323     322     367         1       123.050      6.209056E+02     ; N-C-O, prebuilt n-c-o
  322     323     324         1       127.080      5.330416E+02     ; C-N-C, prebuilt c-n-c
  322     323     439         1       123.710      5.338784E+02     ; C-N-C, prebuilt c-n-ca
  324     323     439         1       123.710      5.338784E+02     ; C-N-C, prebuilt c-n-ca
  310     324     323         1       115.250      5.665136E+02     ; C-C-N, prebuilt ca-c-n
  310     324     325         1       122.600      5.748816E+02     ; C-C-O, prebuilt ca-c-o
  323     324     325         1       123.050      6.209056E+02     ; N-C-O, prebuilt n-c-o
  289     326     327         1       120.600      5.589824E+02     ; C-C-C, prebuilt c2-ca-ca
  289     326     328         1       120.600      5.589824E+02     ; C-C-C, prebuilt c2-ca-ca
  327     326     328         1       120.020      5.573088E+02     ; C-C-C, prebuilt ca-ca-ca
  326     327     329         1       120.020      5.573088E+02     ; C-C-C, prebuilt ca-ca-ca
  326     327     368         1       119.880      4.033376E+02     ; C-C-H, prebuilt ca-ca-ha
  329     327     368         1       119.880      4.033376E+02     ; C-C-H, prebuilt ca-ca-ha
  326     328     330         1       120.020      5.573088E+02     ; C-C-C, prebuilt ca-ca-ca
  326     328     370         1       119.880      4.033376E+02     ; C-C-H, prebuilt ca-ca-ha
  330     328     370         1       119.880      4.033376E+02     ; C-C-H, prebuilt ca-ca-ha
  327     329     331         1       120.020      5.573088E+02     ; C-C-C, prebuilt ca-ca-ca
  327     329     369         1       119.880      4.033376E+02     ; C-C-H, prebuilt ca-ca-ha
  331     329     369         1       119.880      4.033376E+02     ; C-C-H, prebuilt ca-ca-ha
  328     330     331         1       120.020      5.573088E+02     ; C-C-C, prebuilt ca-ca-ca
  328     330     376         1       119.880      4.033376E+02     ; C-C-H, prebuilt ca-ca-ha
  331     330     376         1       119.880      4.033376E+02     ; C-C-H, prebuilt ca-ca-ha
  329     331     330         1       120.020      5.573088E+02     ; C-C-C, prebuilt ca-ca-ca
  329     331     332         1       120.600      5.589824E+02     ; C-C-C, prebuilt c2-ca-ca
  330     331     332         1       120.600      5.589824E+02     ; C-C-C, prebuilt c2-ca-ca
  331     332     333         1       128.401      5.000000E+02     ; C-C-N (ca-c2-na) missing and simply guessed
  331     332     334         1       125.576      5.000000E+02     ; C-C-N (ca-c2-na) missing and simply guessed
  333     332     334         1       109.330      6.117008E+02     ; N-C-N, prebuilt na-c2-na
  332     333     335         1       110.370      5.631664E+02     ; C-N-C, prebuilt c2-na-c2
  332     333     341         1       124.970      5.322048E+02     ; C-N-C, prebuilt c2-na-ca
  335     333     341         1       124.970      5.322048E+02     ; C-N-C, prebuilt c2-na-ca
  332     334     336         1       110.370      5.631664E+02     ; C-N-C, prebuilt c2-na-c2
  332     334     337         1       117.200      5.347152E+02     ; C-N-C, prebuilt c2-na-c3
  336     334     337         1       117.200      5.347152E+02     ; C-N-C, prebuilt c2-na-c3
  333     335     336         1       121.940      5.782288E+02     ; N-C-C, prebuilt c2-c2-na
  333     335     375         1       112.970      4.250944E+02     ; N-C-H, prebuilt h4-c2-na
  336     335     375         1       122.670      4.133792E+02     ; C-C-H, prebuilt c2-c2-h4
  334     336     335         1       121.940      5.782288E+02     ; N-C-C, prebuilt c2-c2-na
  334     336     347         1       117.200      5.539616E+02     ; N-C-C, prebuilt c3-c2-na
  335     336     347         1       123.630      5.363888E+02     ; C-C-C, prebuilt c2-c2-c3
  334     337     338         1       108.780      4.167264E+02     ; N-C-H, prebuilt h1-c3-na
  334     337     339         1       108.780      4.167264E+02     ; N-C-H, prebuilt h1-c3-na
  334     337     340         1       108.780      4.167264E+02     ; N-C-H, prebuilt h1-c3-na
  338     337     339         1       108.460      3.280256E+02     ; H-C-H, prebuilt h1-c3-h1
  338     337     340         1       108.460      3.280256E+02     ; H-C-H, prebuilt h1-c3-h1
  339     337     340         1       108.460      3.280256E+02     ; H-C-H, prebuilt h1-c3-h1
  333     341     342         1       118.340      5.782288E+02     ; N-C-C, prebuilt ca-ca-na
  333     341     346         1       118.340      5.782288E+02     ; N-C-C, prebuilt ca-ca-na
  342     341     346         1       120.020      5.573088E+02     ; C-C-C, prebuilt ca-ca-ca
  341     342     343         1       120.020      5.573088E+02     ; C-C-C, prebuilt ca-ca-ca
  341     342     372         1       119.880      4.033376E+02     ; C-C-H, prebuilt ca-ca-ha
  343     342     372         1       119.880      4.033376E+02     ; C-C-H, prebuilt ca-ca-ha
  342     343     344         1       120.020      5.573088E+02     ; C-C-C, prebuilt ca-ca-ca
  342     343     371         1       119.880      4.033376E+02     ; C-C-H, prebuilt ca-ca-ha
  344     343     371         1       119.880      4.033376E+02     ; C-C-H, prebuilt ca-ca-ha
  228     344     343         1       120.190      5.681872E+02     ; N-C-C, prebuilt ca-ca-n
  228     344     345         1       120.190      5.681872E+02     ; N-C-C, prebuilt ca-ca-n
  343     344     345         1       120.020      5.573088E+02     ; C-C-C, prebuilt ca-ca-ca
  344     345     346         1       120.020      5.573088E+02     ; C-C-C, prebuilt ca-ca-ca
  344     345     373         1       119.880      4.033376E+02     ; C-C-H, prebuilt ca-ca-ha
  346     345     373         1       119.880      4.033376E+02     ; C-C-H, prebuilt ca-ca-ha
  341     346     345         1       120.020      5.573088E+02     ; C-C-C, prebuilt ca-ca-ca
  341     346     374         1       119.880      4.033376E+02     ; C-C-H, prebuilt ca-ca-ha
  345     346     374         1       119.880      4.033376E+02     ; C-C-H, prebuilt ca-ca-ha
  336     347     348         1       110.760      5.556352E+02     ; C-C-F, prebuilt c2-c3-f
  336     347     349         1       110.760      5.556352E+02     ; C-C-F, prebuilt c2-c3-f
  336     347     350         1       110.760      5.556352E+02     ; C-C-F, prebuilt c2-c3-f
  348     347     349         1       107.360      5.932912E+02     ; F-C-F, prebuilt f-c3-f
  348     347     350         1       107.360      5.932912E+02     ; F-C-F, prebuilt f-c3-f
  349     347     350         1       107.360      5.932912E+02     ; F-C-F, prebuilt f-c3-f
  288     351     352         1       121.940      5.782288E+02     ; N-C-C, prebuilt c2-c2-na
  288     351     356         1       112.970      4.250944E+02     ; N-C-H, prebuilt h4-c2-na
  352     351     356         1       122.670      4.133792E+02     ; C-C-H, prebuilt c2-c2-h4
  287     352     351         1       121.940      5.782288E+02     ; N-C-C, prebuilt c2-c2-na
  287     352     353         1       117.200      5.539616E+02     ; N-C-C, prebuilt c3-c2-na
  351     352     353         1       123.630      5.363888E+02     ; C-C-C, prebuilt c2-c2-c3
  352     353     354         1       110.760      5.556352E+02     ; C-C-F, prebuilt c2-c3-f
  352     353     355         1       110.760      5.556352E+02     ; C-C-F, prebuilt c2-c3-f
  352     353     377         1       110.760      5.556352E+02     ; C-C-F, prebuilt c2-c3-f
  354     353     355         1       107.360      5.932912E+02     ; F-C-F, prebuilt f-c3-f
  354     353     377         1       107.360      5.932912E+02     ; F-C-F, prebuilt f-c3-f
  355     353     377         1       107.360      5.932912E+02     ; F-C-F, prebuilt f-c3-f
  287     378     379         1       108.780      4.167264E+02     ; N-C-H, prebuilt h1-c3-na
  287     378     380         1       108.780      4.167264E+02     ; N-C-H, prebuilt h1-c3-na
  287     378     381         1       108.780      4.167264E+02     ; N-C-H, prebuilt h1-c3-na
  379     378     380         1       108.460      3.280256E+02     ; H-C-H, prebuilt h1-c3-h1
  379     378     381         1       108.460      3.280256E+02     ; H-C-H, prebuilt h1-c3-h1
  380     378     381         1       108.460      3.280256E+02     ; H-C-H, prebuilt h1-c3-h1
  384     382     447         1       110.370      5.631664E+02     ; C-N-C, prebuilt c2-na-c2
  384     382     473         1       117.200      5.347152E+02     ; C-N-C, prebuilt c2-na-c3
  447     382     473         1       117.200      5.347152E+02     ; C-N-C, prebuilt c2-na-c3
  384     383     385         1       124.970      5.322048E+02     ; C-N-C, prebuilt c2-na-ca
  384     383     446         1       110.370      5.631664E+02     ; C-N-C, prebuilt c2-na-c2
  385     383     446         1       124.970      5.322048E+02     ; C-N-C, prebuilt c2-na-ca
  382     384     383         1       109.330      6.117008E+02     ; N-C-N, prebuilt na-c2-na
  382     384     421         1       125.595      5.000000E+02     ; N-C-C (na-c2-ca) missing and simply guessed
  383     384     421         1       127.966      5.000000E+02     ; N-C-C (na-c2-ca) missing and simply guessed
  383     385     386         1       118.340      5.782288E+02     ; N-C-C, prebuilt ca-ca-na
  383     385     390         1       118.340      5.782288E+02     ; N-C-C, prebuilt ca-ca-na
  386     385     390         1       120.020      5.573088E+02     ; C-C-C, prebuilt ca-ca-ca
  385     386     387         1       120.020      5.573088E+02     ; C-C-C, prebuilt ca-ca-ca
  385     386     452         1       119.880      4.033376E+02     ; C-C-H, prebuilt ca-ca-ha
  387     386     452         1       119.880      4.033376E+02     ; C-C-H, prebuilt ca-ca-ha
  386     387     388         1       120.020      5.573088E+02     ; C-C-C, prebuilt ca-ca-ca
  386     387     453         1       119.880      4.033376E+02     ; C-C-H, prebuilt ca-ca-ha
  388     387     453         1       119.880      4.033376E+02     ; C-C-H, prebuilt ca-ca-ha
  387     388     389         1       120.020      5.573088E+02     ; C-C-C, prebuilt ca-ca-ca
  387     388     391         1       120.190      5.681872E+02     ; C-C-N, prebuilt ca-ca-n
  389     388     391         1       120.190      5.681872E+02     ; C-C-N, prebuilt ca-ca-n
  388     389     390         1       120.020      5.573088E+02     ; C-C-C, prebuilt ca-ca-ca
  388     389     455         1       119.880      4.033376E+02     ; C-C-H, prebuilt ca-ca-ha
  390     389     455         1       119.880      4.033376E+02     ; C-C-H, prebuilt ca-ca-ha
  385     390     389         1       120.020      5.573088E+02     ; C-C-C, prebuilt ca-ca-ca
  385     390     454         1       119.880      4.033376E+02     ; C-C-H, prebuilt ca-ca-ha
  389     390     454         1       119.880      4.033376E+02     ; C-C-H, prebuilt ca-ca-ha
  388     391     392         1       123.710      5.338784E+02     ; C-N-C, prebuilt c-n-ca
  388     391     395         1       123.710      5.338784E+02     ; C-N-C, prebuilt c-n-ca
  392     391     395         1       127.080      5.330416E+02     ; C-N-C, prebuilt c-n-c
  391     392     393         1       115.250      5.665136E+02     ; N-C-C, prebuilt ca-c-n
  391     392     416         1       123.050      6.209056E+02     ; N-C-O, prebuilt n-c-o
  393     392     416         1       122.600      5.748816E+02     ; C-C-O, prebuilt ca-c-o
  392     393     394         1       120.330      5.380624E+02     ; C-C-C, prebuilt c-ca-ca
  392     393     397         1       120.330      5.380624E+02     ; C-C-C, prebuilt c-ca-ca
  394     393     397         1       120.020      5.573088E+02     ; C-C-C, prebuilt ca-ca-ca
  393     394     395         1       120.330      5.380624E+02     ; C-C-C, prebuilt c-ca-ca
  393     394     400         1       120.020      5.573088E+02     ; C-C-C, prebuilt ca-ca-ca
  395     394     400         1       120.330      5.380624E+02     ; C-C-C, prebuilt c-ca-ca
  391     395     394         1       115.250      5.665136E+02     ; N-C-C, prebuilt ca-c-n
  391     395     396         1       123.050      6.209056E+02     ; N-C-O, prebuilt n-c-o
  394     395     396         1       122.600      5.748816E+02     ; C-C-O, prebuilt ca-c-o
  393     397     398         1       120.020      5.573088E+02     ; C-C-C, prebuilt ca-ca-ca
  393     397     456         1       119.880      4.033376E+02     ; C-C-H, prebuilt ca-ca-ha
  398     397     456         1       119.880      4.033376E+02     ; C-C-H, prebuilt ca-ca-ha
  397     398     399         1       120.020      5.573088E+02     ; C-C-C, prebuilt ca-ca-ca
  397     398     407         1       120.770      5.313680E+02     ; C-C-C, prebuilt c3-ca-ca
  399     398     407         1       120.770      5.313680E+02     ; C-C-C, prebuilt c3-ca-ca
  398     399     400         1       120.020      5.573088E+02     ; C-C-C, prebuilt ca-ca-ca
  398     399     457         1       119.880      4.033376E+02     ; C-C-H, prebuilt ca-ca-ha
  400     399     457         1       119.880      4.033376E+02     ; C-C-H, prebuilt ca-ca-ha
  394     400     399         1       120.020      5.573088E+02     ; C-C-C, prebuilt ca-ca-ca
  394     400     458         1       119.880      4.033376E+02     ; C-C-H, prebuilt ca-ca-ha
  399     400     458         1       119.880      4.033376E+02     ; C-C-H, prebuilt ca-ca-ha
  402     401     404         1       120.020      5.573088E+02     ; C-C-C, prebuilt ca-ca-ca
  402     401     407         1       120.770      5.313680E+02     ; C-C-C, prebuilt c3-ca-ca
  404     401     407         1       120.770      5.313680E+02     ; C-C-C, prebuilt c3-ca-ca
  401     402     403         1       120.020      5.573088E+02     ; C-C-C, prebuilt ca-ca-ca
  401     402     460         1       119.880      4.033376E+02     ; C-C-H, prebuilt ca-ca-ha
  403     402     460         1       119.880      4.033376E+02     ; C-C-H, prebuilt ca-ca-ha
  402     403     405         1       120.020      5.573088E+02     ; C-C-C, prebuilt ca-ca-ca
  402     403     417         1       120.330      5.380624E+02     ; C-C-C, prebuilt c-ca-ca
  405     403     417         1       120.330      5.380624E+02     ; C-C-C, prebuilt c-ca-ca
  401     404     406         1       120.020      5.573088E+02     ; C-C-C, prebuilt ca-ca-ca
  401     404     459         1       119.880      4.033376E+02     ; C-C-H, prebuilt ca-ca-ha
  406     404     459         1       119.880      4.033376E+02     ; C-C-H, prebuilt ca-ca-ha
  403     405     406         1       120.020      5.573088E+02     ; C-C-C, prebuilt ca-ca-ca
  403     405     419         1       120.330      5.380624E+02     ; C-C-C, prebuilt c-ca-ca
  406     405     419         1       120.330      5.380624E+02     ; C-C-C, prebuilt c-ca-ca
  404     406     405         1       120.020      5.573088E+02     ; C-C-C, prebuilt ca-ca-ca
  404     406     461         1       119.880      4.033376E+02     ; C-C-H, prebuilt ca-ca-ha
  405     406     461         1       119.880      4.033376E+02     ; C-C-H, prebuilt ca-ca-ha
  398     407     401         1       112.240      5.322048E+02     ; C-C-C, prebuilt ca-c3-ca
  398     407     408         1       112.070      5.280208E+02     ; C-C-C, prebuilt c3-c3-ca
  398     407     412         1       112.070      5.280208E+02     ; C-C-C, prebuilt c3-c3-ca
  401     407     408         1       112.070      5.280208E+02     ; C-C-C, prebuilt c3-c3-ca
  401     407     412         1       112.070      5.280208E+02     ; C-C-C, prebuilt c3-c3-ca
  408     407     412         1       111.510      5.263472E+02     ; C-C-C, prebuilt c3-c3-c3
  407     408     409         1       109.240      5.531248E+02     ; C-C-F, prebuilt c3-c3-f
  407     408     410         1       109.240      5.531248E+02     ; C-C-F, prebuilt c3-c3-f
  407     408     411         1       109.240      5.531248E+02     ; C-C-F, prebuilt c3-c3-f
  409     408     410         1       107.360      5.932912E+02     ; F-C-F, prebuilt f-c3-f
  409     408     411         1       107.360      5.932912E+02     ; F-C-F, prebuilt f-c3-f
  410     408     411         1       107.360      5.932912E+02     ; F-C-F, prebuilt f-c3-f
  407     412     413         1       109.240      5.531248E+02     ; C-C-F, prebuilt c3-c3-f
  407     412     414         1       109.240      5.531248E+02     ; C-C-F, prebuilt c3-c3-f
  407     412     415         1       109.240      5.531248E+02     ; C-C-F, prebuilt c3-c3-f
  413     412     414         1       107.360      5.932912E+02     ; F-C-F, prebuilt f-c3-f
  413     412     415         1       107.360      5.932912E+02     ; F-C-F, prebuilt f-c3-f
  414     412     415         1       107.360      5.932912E+02     ; F-C-F, prebuilt f-c3-f
  403     417     418         1       115.250      5.665136E+02     ; C-C-N, prebuilt ca-c-n
  403     417     462         1       122.600      5.748816E+02     ; C-C-O, prebuilt ca-c-o
  418     417     462         1       123.050      6.209056E+02     ; N-C-O, prebuilt n-c-o
  417     418     419         1       127.080      5.330416E+02     ; C-N-C, prebuilt c-n-c
  417     418     534         1       123.710      5.338784E+02     ; C-N-C, prebuilt c-n-ca
  419     418     534         1       123.710      5.338784E+02     ; C-N-C, prebuilt c-n-ca
  405     419     418         1       115.250      5.665136E+02     ; C-C-N, prebuilt ca-c-n
  405     419     420         1       122.600      5.748816E+02     ; C-C-O, prebuilt ca-c-o
  418     419     420         1       123.050      6.209056E+02     ; N-C-O, prebuilt n-c-o
  384     421     422         1       120.600      5.589824E+02     ; C-C-C, prebuilt c2-ca-ca
  384     421     423         1       120.600      5.589824E+02     ; C-C-C, prebuilt c2-ca-ca
  422     421     423         1       120.020      5.573088E+02     ; C-C-C, prebuilt ca-ca-ca
  421     422     424         1       120.020      5.573088E+02     ; C-C-C, prebuilt ca-ca-ca
  421     422     463         1       119.880      4.033376E+02     ; C-C-H, prebuilt ca-ca-ha
  424     422     463         1       119.880      4.033376E+02     ; C-C-H, prebuilt ca-ca-ha
  421     423     425         1       120.020      5.573088E+02     ; C-C-C, prebuilt ca-ca-ca
  421     423     465         1       119.880      4.033376E+02     ; C-C-H, prebuilt ca-ca-ha
  425     423     465         1       119.880      4.033376E+02     ; C-C-H, prebuilt ca-ca-ha
  422     424     426         1       120.020      5.573088E+02     ; C-C-C, prebuilt ca-ca-ca
  422     424     464         1       119.880      4.033376E+02     ; C-C-H, prebuilt ca-ca-ha
  426     424     464         1       119.880      4.033376E+02     ; C-C-H, prebuilt ca-ca-ha
  423     425     426         1       120.020      5.573088E+02     ; C-C-C, prebuilt ca-ca-ca
  423     425     471         1       119.880      4.033376E+02     ; C-C-H, prebuilt ca-ca-ha
  426     425     471         1       119.880      4.033376E+02     ; C-C-H, prebuilt ca-ca-ha
  424     426     425         1       120.020      5.573088E+02     ; C-C-C, prebuilt ca-ca-ca
  424     426     427         1       120.600      5.589824E+02     ; C-C-C, prebuilt c2-ca-ca
  425     426     427         1       120.600      5.589824E+02     ; C-C-C, prebuilt c2-ca-ca
  426     427     428         1       126.678      5.000000E+02     ; C-C-N (ca-c2-na) missing and simply guessed
  426     427     429         1       127.168      5.000000E+02     ; C-C-N (ca-c2-na) missing and simply guessed
  428     427     429         1       109.330      6.117008E+02     ; N-C-N, prebuilt na-c2-na
  427     428     430         1       110.370      5.631664E+02     ; C-N-C, prebuilt c2-na-c2
  427     428     436         1       124.970      5.322048E+02     ; C-N-C, prebuilt c2-na-ca
  430     428     436         1       124.970      5.322048E+02     ; C-N-C, prebuilt c2-na-ca
  427     429     431         1       110.370      5.631664E+02     ; C-N-C, prebuilt c2-na-c2
  427     429     432         1       117.200      5.347152E+02     ; C-N-C, prebuilt c2-na-c3
  431     429     432         1       117.200      5.347152E+02     ; C-N-C, prebuilt c2-na-c3
  428     430     431         1       121.940      5.782288E+02     ; N-C-C, prebuilt c2-c2-na
  428     430     470         1       112.970      4.250944E+02     ; N-C-H, prebuilt h4-c2-na
  431     430     470         1       122.670      4.133792E+02     ; C-C-H, prebuilt c2-c2-h4
  429     431     430         1       121.940      5.782288E+02     ; N-C-C, prebuilt c2-c2-na
  429     431     442         1       117.200      5.539616E+02     ; N-C-C, prebuilt c3-c2-na
  430     431     442         1       123.630      5.363888E+02     ; C-C-C, prebuilt c2-c2-c3
  429     432     433         1       108.780      4.167264E+02     ; N-C-H, prebuilt h1-c3-na
  429     432     434         1       108.780      4.167264E+02     ; N-C-H, prebuilt h1-c3-na
  429     432     435         1       108.780      4.167264E+02     ; N-C-H, prebuilt h1-c3-na
  433     432     434         1       108.460      3.280256E+02     ; H-C-H, prebuilt h1-c3-h1
  433     432     435         1       108.460      3.280256E+02     ; H-C-H, prebuilt h1-c3-h1
  434     432     435         1       108.460      3.280256E+02     ; H-C-H, prebuilt h1-c3-h1
  428     436     437         1       118.340      5.782288E+02     ; N-C-C, prebuilt ca-ca-na
  428     436     441         1       118.340      5.782288E+02     ; N-C-C, prebuilt ca-ca-na
  437     436     441         1       120.020      5.573088E+02     ; C-C-C, prebuilt ca-ca-ca
  436     437     438         1       120.020      5.573088E+02     ; C-C-C, prebuilt ca-ca-ca
  436     437     467         1       119.880      4.033376E+02     ; C-C-H, prebuilt ca-ca-ha
  438     437     467         1       119.880      4.033376E+02     ; C-C-H, prebuilt ca-ca-ha
  437     438     439         1       120.020      5.573088E+02     ; C-C-C, prebuilt ca-ca-ca
  437     438     466         1       119.880      4.033376E+02     ; C-C-H, prebuilt ca-ca-ha
  439     438     466         1       119.880      4.033376E+02     ; C-C-H, prebuilt ca-ca-ha
  323     439     438         1       120.190      5.681872E+02     ; N-C-C, prebuilt ca-ca-n
  323     439     440         1       120.190      5.681872E+02     ; N-C-C, prebuilt ca-ca-n
  438     439     440         1       120.020      5.573088E+02     ; C-C-C, prebuilt ca-ca-ca
  439     440     441         1       120.020      5.573088E+02     ; C-C-C, prebuilt ca-ca-ca
  439     440     468         1       119.880      4.033376E+02     ; C-C-H, prebuilt ca-ca-ha
  441     440     468         1       119.880      4.033376E+02     ; C-C-H, prebuilt ca-ca-ha
  436     441     440         1       120.020      5.573088E+02     ; C-C-C, prebuilt ca-ca-ca
  436     441     469         1       119.880      4.033376E+02     ; C-C-H, prebuilt ca-ca-ha
  440     441     469         1       119.880      4.033376E+02     ; C-C-H, prebuilt ca-ca-ha
  431     442     443         1       110.760      5.556352E+02     ; C-C-F, prebuilt c2-c3-f
  431     442     444         1       110.760      5.556352E+02     ; C-C-F, prebuilt c2-c3-f
  431     442     445         1       110.760      5.556352E+02     ; C-C-F, prebuilt c2-c3-f
  443     442     444         1       107.360      5.932912E+02     ; F-C-F, prebuilt f-c3-f
  443     442     445         1       107.360      5.932912E+02     ; F-C-F, prebuilt f-c3-f
  444     442     445         1       107.360      5.932912E+02     ; F-C-F, prebuilt f-c3-f
  383     446     447         1       121.940      5.782288E+02     ; N-C-C, prebuilt c2-c2-na
  383     446     451         1       112.970      4.250944E+02     ; N-C-H, prebuilt h4-c2-na
  447     446     451         1       122.670      4.133792E+02     ; C-C-H, prebuilt c2-c2-h4
  382     447     446         1       121.940      5.782288E+02     ; N-C-C, prebuilt c2-c2-na
  382     447     448         1       117.200      5.539616E+02     ; N-C-C, prebuilt c3-c2-na
  446     447     448         1       123.630      5.363888E+02     ; C-C-C, prebuilt c2-c2-c3
  447     448     449         1       110.760      5.556352E+02     ; C-C-F, prebuilt c2-c3-f
  447     448     450         1       110.760      5.556352E+02     ; C-C-F, prebuilt c2-c3-f
  447     448     472         1       110.760      5.556352E+02     ; C-C-F, prebuilt c2-c3-f
  449     448     450         1       107.360      5.932912E+02     ; F-C-F, prebuilt f-c3-f
  449     448     472         1       107.360      5.932912E+02     ; F-C-F, prebuilt f-c3-f
  450     448     472         1       107.360      5.932912E+02     ; F-C-F, prebuilt f-c3-f
  382     473     474         1       108.780      4.167264E+02     ; N-C-H, prebuilt h1-c3-na
  382     473     475         1       108.780      4.167264E+02     ; N-C-H, prebuilt h1-c3-na
  382     473     476         1       108.780      4.167264E+02     ; N-C-H, prebuilt h1-c3-na
  474     473     475         1       108.460      3.280256E+02     ; H-C-H, prebuilt h1-c3-h1
  474     473     476         1       108.460      3.280256E+02     ; H-C-H, prebuilt h1-c3-h1
  475     473     476         1       108.460      3.280256E+02     ; H-C-H, prebuilt h1-c3-h1
  479     477     542         1       110.370      5.631664E+02     ; C-N-C, prebuilt c2-na-c2
  479     477     568         1       117.200      5.347152E+02     ; C-N-C, prebuilt c2-na-c3
  542     477     568         1       117.200      5.347152E+02     ; C-N-C, prebuilt c2-na-c3
  479     478     480         1       124.970      5.322048E+02     ; C-N-C, prebuilt c2-na-ca
  479     478     541         1       110.370      5.631664E+02     ; C-N-C, prebuilt c2-na-c2
  480     478     541         1       124.970      5.322048E+02     ; C-N-C, prebuilt c2-na-ca
  477     479     478         1       109.330      6.117008E+02     ; N-C-N, prebuilt na-c2-na
  477     479     516         1       125.045      5.000000E+02     ; N-C-C (na-c2-ca) missing and simply guessed
  478     479     516         1       128.561      5.000000E+02     ; N-C-C (na-c2-ca) missing and simply guessed
  478     480     481         1       118.340      5.782288E+02     ; N-C-C, prebuilt ca-ca-na
  478     480     485         1       118.340      5.782288E+02     ; N-C-C, prebuilt ca-ca-na
  481     480     485         1       120.020      5.573088E+02     ; C-C-C, prebuilt ca-ca-ca
  480     481     482         1       120.020      5.573088E+02     ; C-C-C, prebuilt ca-ca-ca
  480     481     547         1       119.880      4.033376E+02     ; C-C-H, prebuilt ca-ca-ha
  482     481     547         1       119.880      4.033376E+02     ; C-C-H, prebuilt ca-ca-ha
  481     482     483         1       120.020      5.573088E+02     ; C-C-C, prebuilt ca-ca-ca
  481     482     548         1       119.880      4.033376E+02     ; C-C-H, prebuilt ca-ca-ha
  483     482     548         1       119.880      4.033376E+02     ; C-C-H, prebuilt ca-ca-ha
  482     483     484         1       120.020      5.573088E+02     ; C-C-C, prebuilt ca-ca-ca
  482     483     486         1       120.190      5.681872E+02     ; C-C-N, prebuilt ca-ca-n
  484     483     486         1       120.190      5.681872E+02     ; C-C-N, prebuilt ca-ca-n
  483     484     485         1       120.020      5.573088E+02     ; C-C-C, prebuilt ca-ca-ca
  483     484     550         1       119.880      4.033376E+02     ; C-C-H, prebuilt ca-ca-ha
  485     484     550         1       119.880      4.033376E+02     ; C-C-H, prebuilt ca-ca-ha
  480     485     484         1       120.020      5.573088E+02     ; C-C-C, prebuilt ca-ca-ca
  480     485     549         1       119.880      4.033376E+02     ; C-C-H, prebuilt ca-ca-ha
  484     485     549         1       119.880      4.033376E+02     ; C-C-H, prebuilt ca-ca-ha
  483     486     487         1       123.710      5.338784E+02     ; C-N-C, prebuilt c-n-ca
  483     486     490         1       123.710      5.338784E+02     ; C-N-C, prebuilt c-n-ca
  487     486     490         1       127.080      5.330416E+02     ; C-N-C, prebuilt c-n-c
  486     487     488         1       115.250      5.665136E+02     ; N-C-C, prebuilt ca-c-n
  486     487     511         1       123.050      6.209056E+02     ; N-C-O, prebuilt n-c-o
  488     487     511         1       122.600      5.748816E+02     ; C-C-O, prebuilt ca-c-o
  487     488     489         1       120.330      5.380624E+02     ; C-C-C, prebuilt c-ca-ca
  487     488     492         1       120.330      5.380624E+02     ; C-C-C, prebuilt c-ca-ca
  489     488     492         1       120.020      5.573088E+02     ; C-C-C, prebuilt ca-ca-ca
  488     489     490         1       120.330      5.380624E+02     ; C-C-C, prebuilt c-ca-ca
  488     489     495         1       120.020      5.573088E+02     ; C-C-C, prebuilt ca-ca-ca
  490     489     495         1       120.330      5.380624E+02     ; C-C-C, prebuilt c-ca-ca
  486     490     489         1       115.250      5.665136E+02     ; N-C-C, prebuilt ca-c-n
  486     490     491         1       123.050      6.209056E+02     ; N-C-O, prebuilt n-c-o
  489     490     491         1       122.600      5.748816E+02     ; C-C-O, prebuilt ca-c-o
  488     492     493         1       120.020      5.573088E+02     ; C-C-C, prebuilt ca-ca-ca
  488     492     551         1       119.880      4.033376E+02     ; C-C-H, prebuilt ca-ca-ha
  493     492     551         1       119.880      4.033376E+02     ; C-C-H, prebuilt ca-ca-ha
  492     493     494         1       120.020      5.573088E+02     ; C-C-C, prebuilt ca-ca-ca
  492     493     502         1       120.770      5.313680E+02     ; C-C-C, prebuilt c3-ca-ca
  494     493     502         1       120.770      5.313680E+02     ; C-C-C, prebuilt c3-ca-ca
  493     494     495         1       120.020      5.573088E+02     ; C-C-C, prebuilt ca-ca-ca
  493     494     552         1       119.880      4.033376E+02     ; C-C-H, prebuilt ca-ca-ha
  495     494     552         1       119.880      4.033376E+02     ; C-C-H, prebuilt ca-ca-ha
  489     495     494         1       120.020      5.573088E+02     ; C-C-C, prebuilt ca-ca-ca
  489     495     553         1       119.880      4.033376E+02     ; C-C-H, prebuilt ca-ca-ha
  494     495     553         1       119.880      4.033376E+02     ; C-C-H, prebuilt ca-ca-ha
  497     496     499         1       120.020      5.573088E+02     ; C-C-C, prebuilt ca-ca-ca
  497     496     502         1       120.770      5.313680E+02     ; C-C-C, prebuilt c3-ca-ca
  499     496     502         1       120.770      5.313680E+02     ; C-C-C, prebuilt c3-ca-ca
  496     497     498         1       120.020      5.573088E+02     ; C-C-C, prebuilt ca-ca-ca
  496     497     555         1       119.880      4.033376E+02     ; C-C-H, prebuilt ca-ca-ha
  498     497     555         1       119.880      4.033376E+02     ; C-C-H, prebuilt ca-ca-ha
  497     498     500         1       120.020      5.573088E+02     ; C-C-C, prebuilt ca-ca-ca
  497     498     512         1       120.330      5.380624E+02     ; C-C-C, prebuilt c-ca-ca
  500     498     512         1       120.330      5.380624E+02     ; C-C-C, prebuilt c-ca-ca
  496     499     501         1       120.020      5.573088E+02     ; C-C-C, prebuilt ca-ca-ca
  496     499     554         1       119.880      4.033376E+02     ; C-C-H, prebuilt ca-ca-ha
  501     499     554         1       119.880      4.033376E+02     ; C-C-H, prebuilt ca-ca-ha
  498     500     501         1       120.020      5.573088E+02     ; C-C-C, prebuilt ca-ca-ca
  498     500     514         1       120.330      5.380624E+02     ; C-C-C, prebuilt c-ca-ca
  501     500     514         1       120.330      5.380624E+02     ; C-C-C, prebuilt c-ca-ca
  499     501     500         1       120.020      5.573088E+02     ; C-C-C, prebuilt ca-ca-ca
  499     501     556         1       119.880      4.033376E+02     ; C-C-H, prebuilt ca-ca-ha
  500     501     556         1       119.880      4.033376E+02     ; C-C-H, prebuilt ca-ca-ha
  493     502     496         1       112.240      5.322048E+02     ; C-C-C, prebuilt ca-c3-ca
  493     502     503         1       112.070      5.280208E+02     ; C-C-C, prebuilt c3-c3-ca
  493     502     507         1       112.070      5.280208E+02     ; C-C-C, prebuilt c3-c3-ca
  496     502     503         1       112.070      5.280208E+02     ; C-C-C, prebuilt c3-c3-ca
  496     502     507         1       112.070      5.280208E+02     ; C-C-C, prebuilt c3-c3-ca
  503     502     507         1       111.510      5.263472E+02     ; C-C-C, prebuilt c3-c3-c3
  502     503     504         1       109.240      5.531248E+02     ; C-C-F, prebuilt c3-c3-f
  502     503     505         1       109.240      5.531248E+02     ; C-C-F, prebuilt c3-c3-f
  502     503     506         1       109.240      5.531248E+02     ; C-C-F, prebuilt c3-c3-f
  504     503     505         1       107.360      5.932912E+02     ; F-C-F, prebuilt f-c3-f
  504     503     506         1       107.360      5.932912E+02     ; F-C-F, prebuilt f-c3-f
  505     503     506         1       107.360      5.932912E+02     ; F-C-F, prebuilt f-c3-f
  502     507     508         1       109.240      5.531248E+02     ; C-C-F, prebuilt c3-c3-f
  502     507     509         1       109.240      5.531248E+02     ; C-C-F, prebuilt c3-c3-f
  502     507     510         1       109.240      5.531248E+02     ; C-C-F, prebuilt c3-c3-f
  508     507     509         1       107.360      5.932912E+02     ; F-C-F, prebuilt f-c3-f
  508     507     510         1       107.360      5.932912E+02     ; F-C-F, prebuilt f-c3-f
  509     507     510         1       107.360      5.932912E+02     ; F-C-F, prebuilt f-c3-f
  498     512     513         1       115.250      5.665136E+02     ; C-C-N, prebuilt ca-c-n
  498     512     557         1       122.600      5.748816E+02     ; C-C-O, prebuilt ca-c-o
  513     512     557         1       123.050      6.209056E+02     ; N-C-O, prebuilt n-c-o
  512     513     514         1       127.080      5.330416E+02     ; C-N-C, prebuilt c-n-c
  512     513     629         1       123.710      5.338784E+02     ; C-N-C, prebuilt c-n-ca
  514     513     629         1       123.710      5.338784E+02     ; C-N-C, prebuilt c-n-ca
  500     514     513         1       115.250      5.665136E+02     ; C-C-N, prebuilt ca-c-n
  500     514     515         1       122.600      5.748816E+02     ; C-C-O, prebuilt ca-c-o
  513     514     515         1       123.050      6.209056E+02     ; N-C-O, prebuilt n-c-o
  479     516     517         1       120.600      5.589824E+02     ; C-C-C, prebuilt c2-ca-ca
  479     516     518         1       120.600      5.589824E+02     ; C-C-C, prebuilt c2-ca-ca
  517     516     518         1       120.020      5.573088E+02     ; C-C-C, prebuilt ca-ca-ca
  516     517     519         1       120.020      5.573088E+02     ; C-C-C, prebuilt ca-ca-ca
  516     517     558         1       119.880      4.033376E+02     ; C-C-H, prebuilt ca-ca-ha
  519     517     558         1       119.880      4.033376E+02     ; C-C-H, prebuilt ca-ca-ha
  516     518     520         1       120.020      5.573088E+02     ; C-C-C, prebuilt ca-ca-ca
  516     518     560         1       119.880      4.033376E+02     ; C-C-H, prebuilt ca-ca-ha
  520     518     560         1       119.880      4.033376E+02     ; C-C-H, prebuilt ca-ca-ha
  517     519     521         1       120.020      5.573088E+02     ; C-C-C, prebuilt ca-ca-ca
  517     519     559         1       119.880      4.033376E+02     ; C-C-H, prebuilt ca-ca-ha
  521     519     559         1       119.880      4.033376E+02     ; C-C-H, prebuilt ca-ca-ha
  518     520     521         1       120.020      5.573088E+02     ; C-C-C, prebuilt ca-ca-ca
  518     520     566         1       119.880      4.033376E+02     ; C-C-H, prebuilt ca-ca-ha
  521     520     566         1       119.880      4.033376E+02     ; C-C-H, prebuilt ca-ca-ha
  519     521     520         1       120.020      5.573088E+02     ; C-C-C, prebuilt ca-ca-ca
  519     521     522         1       120.600      5.589824E+02     ; C-C-C, prebuilt c2-ca-ca
  520     521     522         1       120.600      5.589824E+02     ; C-C-C, prebuilt c2-ca-ca
  521     522     523         1       128.283      5.000000E+02     ; C-C-N (ca-c2-na) missing and simply guessed
  521     522     524         1       125.743      5.000000E+02     ; C-C-N (ca-c2-na) missing and simply guessed
  523     522     524         1       109.330      6.117008E+02     ; N-C-N, prebuilt na-c2-na
  522     523     525         1       110.370      5.631664E+02     ; C-N-C, prebuilt c2-na-c2
  522     523     531         1       124.970      5.322048E+02     ; C-N-C, prebuilt c2-na-ca
  525     523     531         1       124.970      5.322048E+02     ; C-N-C, prebuilt c2-na-ca
  522     524     526         1       110.370      5.631664E+02     ; C-N-C, prebuilt c2-na-c2
  522     524     527         1       117.200      5.347152E+02     ; C-N-C, prebuilt c2-na-c3
  526     524     527         1       117.200      5.347152E+02     ; C-N-C, prebuilt c2-na-c3
  523     525     526         1       121.940      5.782288E+02     ; N-C-C, prebuilt c2-c2-na
  523     525     565         1       112.970      4.250944E+02     ; N-C-H, prebuilt h4-c2-na
  526     525     565         1       122.670      4.133792E+02     ; C-C-H, prebuilt c2-c2-h4
  524     526     525         1       121.940      5.782288E+02     ; N-C-C, prebuilt c2-c2-na
  524     526     537         1       117.200      5.539616E+02     ; N-C-C, prebuilt c3-c2-na
  525     526     537         1       123.630      5.363888E+02     ; C-C-C, prebuilt c2-c2-c3
  524     527     528         1       108.780      4.167264E+02     ; N-C-H, prebuilt h1-c3-na
  524     527     529         1       108.780      4.167264E+02     ; N-C-H, prebuilt h1-c3-na
  524     527     530         1       108.780      4.167264E+02     ; N-C-H, prebuilt h1-c3-na
  528     527     529         1       108.460      3.280256E+02     ; H-C-H, prebuilt h1-c3-h1
  528     527     530         1       108.460      3.280256E+02     ; H-C-H, prebuilt h1-c3-h1
  529     527     530         1       108.460      3.280256E+02     ; H-C-H, prebuilt h1-c3-h1
  523     531     532         1       118.340      5.782288E+02     ; N-C-C, prebuilt ca-ca-na
  523     531     536         1       118.340      5.782288E+02     ; N-C-C, prebuilt ca-ca-na
  532     531     536         1       120.020      5.573088E+02     ; C-C-C, prebuilt ca-ca-ca
  531     532     533         1       120.020      5.573088E+02     ; C-C-C, prebuilt ca-ca-ca
  531     532     562         1       119.880      4.033376E+02     ; C-C-H, prebuilt ca-ca-ha
  533     532     562         1       119.880      4.033376E+02     ; C-C-H, prebuilt ca-ca-ha
  532     533     534         1       120.020      5.573088E+02     ; C-C-C, prebuilt ca-ca-ca
  532     533     561         1       119.880      4.033376E+02     ; C-C-H, prebuilt ca-ca-ha
  534     533     561         1       119.880      4.033376E+02     ; C-C-H, prebuilt ca-ca-ha
  418     534     533         1       120.190      5.681872E+02     ; N-C-C, prebuilt ca-ca-n
  418     534     535         1       120.190      5.681872E+02     ; N-C-C, prebuilt ca-ca-n
  533     534     535         1       120.020      5.573088E+02     ; C-C-C, prebuilt ca-ca-ca
  534     535     536         1       120.020      5.573088E+02     ; C-C-C, prebuilt ca-ca-ca
  534     535     563         1       119.880      4.033376E+02     ; C-C-H, prebuilt ca-ca-ha
  536     535     563         1       119.880      4.033376E+02     ; C-C-H, prebuilt ca-ca-ha
  531     536     535         1       120.020      5.573088E+02     ; C-C-C, prebuilt ca-ca-ca
  531     536     564         1       119.880      4.033376E+02     ; C-C-H, prebuilt ca-ca-ha
  535     536     564         1       119.880      4.033376E+02     ; C-C-H, prebuilt ca-ca-ha
  526     537     538         1       110.760      5.556352E+02     ; C-C-F, prebuilt c2-c3-f
  526     537     539         1       110.760      5.556352E+02     ; C-C-F, prebuilt c2-c3-f
  526     537     540         1       110.760      5.556352E+02     ; C-C-F, prebuilt c2-c3-f
  538     537     539         1       107.360      5.932912E+02     ; F-C-F, prebuilt f-c3-f
  538     537     540         1       107.360      5.932912E+02     ; F-C-F, prebuilt f-c3-f
  539     537     540         1       107.360      5.932912E+02     ; F-C-F, prebuilt f-c3-f
  478     541     542         1       121.940      5.782288E+02     ; N-C-C, prebuilt c2-c2-na
  478     541     546         1       112.970      4.250944E+02     ; N-C-H, prebuilt h4-c2-na
  542     541     546         1       122.670      4.133792E+02     ; C-C-H, prebuilt c2-c2-h4
  477     542     541         1       121.940      5.782288E+02     ; N-C-C, prebuilt c2-c2-na
  477     542     543         1       117.200      5.539616E+02     ; N-C-C, prebuilt c3-c2-na
  541     542     543         1       123.630      5.363888E+02     ; C-C-C, prebuilt c2-c2-c3
  542     543     544         1       110.760      5.556352E+02     ; C-C-F, prebuilt c2-c3-f
  542     543     545         1       110.760      5.556352E+02     ; C-C-F, prebuilt c2-c3-f
  542     543     567         1       110.760      5.556352E+02     ; C-C-F, prebuilt c2-c3-f
  544     543     545         1       107.360      5.932912E+02     ; F-C-F, prebuilt f-c3-f
  544     543     567         1       107.360      5.932912E+02     ; F-C-F, prebuilt f-c3-f
  545     543     567         1       107.360      5.932912E+02     ; F-C-F, prebuilt f-c3-f
  477     568     569         1       108.780      4.167264E+02     ; N-C-H, prebuilt h1-c3-na
  477     568     570         1       108.780      4.167264E+02     ; N-C-H, prebuilt h1-c3-na
  477     568     571         1       108.780      4.167264E+02     ; N-C-H, prebuilt h1-c3-na
  569     568     570         1       108.460      3.280256E+02     ; H-C-H, prebuilt h1-c3-h1
  569     568     571         1       108.460      3.280256E+02     ; H-C-H, prebuilt h1-c3-h1
  570     568     571         1       108.460      3.280256E+02     ; H-C-H, prebuilt h1-c3-h1
  574     572     637         1       110.370      5.631664E+02     ; C-N-C, prebuilt c2-na-c2
  574     572     663         1       117.200      5.347152E+02     ; C-N-C, prebuilt c2-na-c3
  637     572     663         1       117.200      5.347152E+02     ; C-N-C, prebuilt c2-na-c3
  574     573     575         1       124.970      5.322048E+02     ; C-N-C, prebuilt c2-na-ca
  574     573     636         1       110.370      5.631664E+02     ; C-N-C, prebuilt c2-na-c2
  575     573     636         1       124.970      5.322048E+02     ; C-N-C, prebuilt c2-na-ca
  572     574     573         1       109.330      6.117008E+02     ; N-C-N, prebuilt na-c2-na
  572     574     611         1       124.889      5.000000E+02     ; N-C-C (na-c2-ca) missing and simply guessed
  573     574     611         1       128.428      5.000000E+02     ; N-C-C (na-c2-ca) missing and simply guessed
  573     575     576         1       118.340      5.782288E+02     ; N-C-C, prebuilt ca-ca-na
  573     575     580         1       118.340      5.782288E+02     ; N-C-C, prebuilt ca-ca-na
  576     575     580         1       120.020      5.573088E+02     ; C-C-C, prebuilt ca-ca-ca
  575     576     577         1       120.020      5.573088E+02     ; C-C-C, prebuilt ca-ca-ca
  575     576     642         1       119.880      4.033376E+02     ; C-C-H, prebuilt ca-ca-ha
  577     576     642         1       119.880      4.033376E+02     ; C-C-H, prebuilt ca-ca-ha
  576     577     578         1       120.020      5.573088E+02     ; C-C-C, prebuilt ca-ca-ca
  576     577     643         1       119.880      4.033376E+02     ; C-C-H, prebuilt ca-ca-ha
  578     577     643         1       119.880      4.033376E+02     ; C-C-H, prebuilt ca-ca-ha
  577     578     579         1       120.020      5.573088E+02     ; C-C-C, prebuilt ca-ca-ca
  577     578     581         1       120.190      5.681872E+02     ; C-C-N, prebuilt ca-ca-n
  579     578     581         1       120.190      5.681872E+02     ; C-C-N, prebuilt ca-ca-n
  578     579     580         1       120.020      5.573088E+02     ; C-C-C, prebuilt ca-ca-ca
  578     579     645         1       119.880      4.033376E+02     ; C-C-H, prebuilt ca-ca-ha
  580     579     645         1       119.880      4.033376E+02     ; C-C-H, prebuilt ca-ca-ha
  575     580     579         1       120.020      5.573088E+02     ; C-C-C, prebuilt ca-ca-ca
  575     580     644         1       119.880      4.033376E+02     ; C-C-H, prebuilt ca-ca-ha
  579     580     644         1       119.880      4.033376E+02     ; C-C-H, prebuilt ca-ca-ha
  578     581     582         1       123.710      5.338784E+02     ; C-N-C, prebuilt c-n-ca
  578     581     585         1       123.710      5.338784E+02     ; C-N-C, prebuilt c-n-ca
  582     581     585         1       127.080      5.330416E+02     ; C-N-C, prebuilt c-n-c
  581     582     583         1       115.250      5.665136E+02     ; N-C-C, prebuilt ca-c-n
  581     582     606         1       123.050      6.209056E+02     ; N-C-O, prebuilt n-c-o
  583     582     606         1       122.600      5.748816E+02     ; C-C-O, prebuilt ca-c-o
  582     583     584         1       120.330      5.380624E+02     ; C-C-C, prebuilt c-ca-ca
  582     583     587         1       120.330      5.380624E+02     ; C-C-C, prebuilt c-ca-ca
  584     583     587         1       120.020      5.573088E+02     ; C-C-C, prebuilt ca-ca-ca
  583     584     585         1       120.330      5.380624E+02     ; C-C-C, prebuilt c-ca-ca
  583     584     590         1       120.020      5.573088E+02     ; C-C-C, prebuilt ca-ca-ca
  585     584     590         1       120.330      5.380624E+02     ; C-C-C, prebuilt c-ca-ca
  581     585     584         1       115.250      5.665136E+02     ; N-C-C, prebuilt ca-c-n
  581     585     586         1       123.050      6.209056E+02     ; N-C-O, prebuilt n-c-o
  584     585     586         1       122.600      5.748816E+02     ; C-C-O, prebuilt ca-c-o
  583     587     588         1       120.020      5.573088E+02     ; C-C-C, prebuilt ca-ca-ca
  583     587     646         1       119.880      4.033376E+02     ; C-C-H, prebuilt ca-ca-ha
  588     587     646         1       119.880      4.033376E+02     ; C-C-H, prebuilt ca-ca-ha
  587     588     589         1       120.020      5.573088E+02     ; C-C-C, prebuilt ca-ca-ca
  587     588     597         1       120.770      5.313680E+02     ; C-C-C, prebuilt c3-ca-ca
  589     588     597         1       120.770      5.313680E+02     ; C-C-C, prebuilt c3-ca-ca
  588     589     590         1       120.020      5.573088E+02     ; C-C-C, prebuilt ca-ca-ca
  588     589     647         1       119.880      4.033376E+02     ; C-C-H, prebuilt ca-ca-ha
  590     589     647         1       119.880      4.033376E+02     ; C-C-H, prebuilt ca-ca-ha
  584     590     589         1       120.020      5.573088E+02     ; C-C-C, prebuilt ca-ca-ca
  584     590     648         1       119.880      4.033376E+02     ; C-C-H, prebuilt ca-ca-ha
  589     590     648         1       119.880      4.033376E+02     ; C-C-H, prebuilt ca-ca-ha
  592     591     594         1       120.020      5.573088E+02     ; C-C-C, prebuilt ca-ca-ca
  592     591     597         1       120.770      5.313680E+02     ; C-C-C, prebuilt c3-ca-ca
  594     591     597         1       120.770      5.313680E+02     ; C-C-C, prebuilt c3-ca-ca
  591     592     593         1       120.020      5.573088E+02     ; C-C-C, prebuilt ca-ca-ca
  591     592     650         1       119.880      4.033376E+02     ; C-C-H, prebuilt ca-ca-ha
  593     592     650         1       119.880      4.033376E+02     ; C-C-H, prebuilt ca-ca-ha
  592     593     595         1       120.020      5.573088E+02     ; C-C-C, prebuilt ca-ca-ca
  592     593     607         1       120.330      5.380624E+02     ; C-C-C, prebuilt c-ca-ca
  595     593     607         1       120.330      5.380624E+02     ; C-C-C, prebuilt c-ca-ca
  591     594     596         1       120.020      5.573088E+02     ; C-C-C, prebuilt ca-ca-ca
  591     594     649         1       119.880      4.033376E+02     ; C-C-H, prebuilt ca-ca-ha
  596     594     649         1       119.880      4.033376E+02     ; C-C-H, prebuilt ca-ca-ha
  593     595     596         1       120.020      5.573088E+02     ; C-C-C, prebuilt ca-ca-ca
  593     595     609         1       120.330      5.380624E+02     ; C-C-C, prebuilt c-ca-ca
  596     595     609         1       120.330      5.380624E+02     ; C-C-C, prebuilt c-ca-ca
  594     596     595         1       120.020      5.573088E+02     ; C-C-C, prebuilt ca-ca-ca
  594     596     651         1       119.880      4.033376E+02     ; C-C-H, prebuilt ca-ca-ha
  595     596     651         1       119.880      4.033376E+02     ; C-C-H, prebuilt ca-ca-ha
  588     597     591         1       112.240      5.322048E+02     ; C-C-C, prebuilt ca-c3-ca
  588     597     598         1       112.070      5.280208E+02     ; C-C-C, prebuilt c3-c3-ca
  588     597     602         1       112.070      5.280208E+02     ; C-C-C, prebuilt c3-c3-ca
  591     597     598         1       112.070      5.280208E+02     ; C-C-C, prebuilt c3-c3-ca
  591     597     602         1       112.070      5.280208E+02     ; C-C-C, prebuilt c3-c3-ca
  598     597     602         1       111.510      5.263472E+02     ; C-C-C, prebuilt c3-c3-c3
  597     598     599         1       109.240      5.531248E+02     ; C-C-F, prebuilt c3-c3-f
  597     598     600         1       109.240      5.531248E+02     ; C-C-F, prebuilt c3-c3-f
  597     598     601         1       109.240      5.531248E+02     ; C-C-F, prebuilt c3-c3-f
  599     598     600         1       107.360      5.932912E+02     ; F-C-F, prebuilt f-c3-f
  599     598     601         1       107.360      5.932912E+02     ; F-C-F, prebuilt f-c3-f
  600     598     601         1       107.360      5.932912E+02     ; F-C-F, prebuilt f-c3-f
  597     602     603         1       109.240      5.531248E+02     ; C-C-F, prebuilt c3-c3-f
  597     602     604         1       109.240      5.531248E+02     ; C-C-F, prebuilt c3-c3-f
  597     602     605         1       109.240      5.531248E+02     ; C-C-F, prebuilt c3-c3-f
  603     602     604         1       107.360      5.932912E+02     ; F-C-F, prebuilt f-c3-f
  603     602     605         1       107.360      5.932912E+02     ; F-C-F, prebuilt f-c3-f
  604     602     605         1       107.360      5.932912E+02     ; F-C-F, prebuilt f-c3-f
  593     607     608         1       115.250      5.665136E+02     ; C-C-N, prebuilt ca-c-n
  593     607     652         1       122.600      5.748816E+02     ; C-C-O, prebuilt ca-c-o
  608     607     652         1       123.050      6.209056E+02     ; N-C-O, prebuilt n-c-o
  607     608     609         1       127.080      5.330416E+02     ; C-N-C, prebuilt c-n-c
  607     608     724         1       123.710      5.338784E+02     ; C-N-C, prebuilt c-n-ca
  609     608     724         1       123.710      5.338784E+02     ; C-N-C, prebuilt c-n-ca
  595     609     608         1       115.250      5.665136E+02     ; C-C-N, prebuilt ca-c-n
  595     609     610         1       122.600      5.748816E+02     ; C-C-O, prebuilt ca-c-o
  608     609     610         1       123.050      6.209056E+02     ; N-C-O, prebuilt n-c-o
  574     611     612         1       120.600      5.589824E+02     ; C-C-C, prebuilt c2-ca-ca
  574     611     613         1       120.600      5.589824E+02     ; C-C-C, prebuilt c2-ca-ca
  612     611     613         1       120.020      5.573088E+02     ; C-C-C, prebuilt ca-ca-ca
  611     612     614         1       120.020      5.573088E+02     ; C-C-C, prebuilt ca-ca-ca
  611     612     653         1       119.880      4.033376E+02     ; C-C-H, prebuilt ca-ca-ha
  614     612     653         1       119.880      4.033376E+02     ; C-C-H, prebuilt ca-ca-ha
  611     613     615         1       120.020      5.573088E+02     ; C-C-C, prebuilt ca-ca-ca
  611     613     655         1       119.880      4.033376E+02     ; C-C-H, prebuilt ca-ca-ha
  615     613     655         1       119.880      4.033376E+02     ; C-C-H, prebuilt ca-ca-ha
  612     614     616         1       120.020      5.573088E+02     ; C-C-C, prebuilt ca-ca-ca
  612     614     654         1       119.880      4.033376E+02     ; C-C-H, prebuilt ca-ca-ha
  616     614     654         1       119.880      4.033376E+02     ; C-C-H, prebuilt ca-ca-ha
  613     615     616         1       120.020      5.573088E+02     ; C-C-C, prebuilt ca-ca-ca
  613     615     661         1       119.880      4.033376E+02     ; C-C-H, prebuilt ca-ca-ha
  616     615     661         1       119.880      4.033376E+02     ; C-C-H, prebuilt ca-ca-ha
  614     616     615         1       120.020      5.573088E+02     ; C-C-C, prebuilt ca-ca-ca
  614     616     617         1       120.600      5.589824E+02     ; C-C-C, prebuilt c2-ca-ca
  615     616     617         1       120.600      5.589824E+02     ; C-C-C, prebuilt c2-ca-ca
  616     617     618         1       129.720      5.000000E+02     ; C-C-N (ca-c2-na) missing and simply guessed
  616     617     619         1       124.495      5.000000E+02     ; C-C-N (ca-c2-na) missing and simply guessed
  618     617     619         1       109.330      6.117008E+02     ; N-C-N, prebuilt na-c2-na
  617     618     620         1       110.370      5.631664E+02     ; C-N-C, prebuilt c2-na-c2
  617     618     626         1       124.970      5.322048E+02     ; C-N-C, prebuilt c2-na-ca
  620     618     626         1       124.970      5.322048E+02     ; C-N-C, prebuilt c2-na-ca
  617     619     621         1       110.370      5.631664E+02     ; C-N-C, prebuilt c2-na-c2
  617     619     622         1       117.200      5.347152E+02     ; C-N-C, prebuilt c2-na-c3
  621     619     622         1       117.200      5.347152E+02     ; C-N-C, prebuilt c2-na-c3
  618     620     621         1       121.940      5.782288E+02     ; N-C-C, prebuilt c2-c2-na
  618     620     660         1       112.970      4.250944E+02     ; N-C-H, prebuilt h4-c2-na
  621     620     660         1       122.670      4.133792E+02     ; C-C-H, prebuilt c2-c2-h4
  619     621     620         1       121.940      5.782288E+02     ; N-C-C, prebuilt c2-c2-na
  619     621     632         1       117.200      5.539616E+02     ; N-C-C, prebuilt c3-c2-na
  620     621     632         1       123.630      5.363888E+02     ; C-C-C, prebuilt c2-c2-c3
  619     622     623         1       108.780      4.167264E+02     ; N-C-H, prebuilt h1-c3-na
  619     622     624         1       108.780      4.167264E+02     ; N-C-H, prebuilt h1-c3-na
  619     622     625         1       108.780      4.167264E+02     ; N-C-H, prebuilt h1-c3-na
  623     622     624         1       108.460      3.280256E+02     ; H-C-H, prebuilt h1-c3-h1
  623     622     625         1       108.460      3.280256E+02     ; H-C-H, prebuilt h1-c3-h1
  624     622     625         1       108.460      3.280256E+02     ; H-C-H, prebuilt h1-c3-h1
  618     626     627         1       118.340      5.782288E+02     ; N-C-C, prebuilt ca-ca-na
  618     626     631         1       118.340      5.782288E+02     ; N-C-C, prebuilt ca-ca-na
  627     626     631         1       120.020      5.573088E+02     ; C-C-C, prebuilt ca-ca-ca
  626     627     628         1       120.020      5.573088E+02     ; C-C-C, prebuilt ca-ca-ca
  626     627     657         1       119.880      4.033376E+02     ; C-C-H, prebuilt ca-ca-ha
  628     627     657         1       119.880      4.033376E+02     ; C-C-H, prebuilt ca-ca-ha
  627     628     629         1       120.020      5.573088E+02     ; C-C-C, prebuilt ca-ca-ca
  627     628     656         1       119.880      4.033376E+02     ; C-C-H, prebuilt ca-ca-ha
  629     628     656         1       119.880      4.033376E+02     ; C-C-H, prebuilt ca-ca-ha
  513     629     628         1       120.190      5.681872E+02     ; N-C-C, prebuilt ca-ca-n
  513     629     630         1       120.190      5.681872E+02     ; N-C-C, prebuilt ca-ca-n
  628     629     630         1       120.020      5.573088E+02     ; C-C-C, prebuilt ca-ca-ca
  629     630     631         1       120.020      5.573088E+02     ; C-C-C, prebuilt ca-ca-ca
  629     630     658         1       119.880      4.033376E+02     ; C-C-H, prebuilt ca-ca-ha
  631     630     658         1       119.880      4.033376E+02     ; C-C-H, prebuilt ca-ca-ha
  626     631     630         1       120.020      5.573088E+02     ; C-C-C, prebuilt ca-ca-ca
  626     631     659         1       119.880      4.033376E+02     ; C-C-H, prebuilt ca-ca-ha
  630     631     659         1       119.880      4.033376E+02     ; C-C-H, prebuilt ca-ca-ha
  621     632     633         1       110.760      5.556352E+02     ; C-C-F, prebuilt c2-c3-f
  621     632     634         1       110.760      5.556352E+02     ; C-C-F, prebuilt c2-c3-f
  621     632     635         1       110.760      5.556352E+02     ; C-C-F, prebuilt c2-c3-f
  633     632     634         1       107.360      5.932912E+02     ; F-C-F, prebuilt f-c3-f
  633     632     635         1       107.360      5.932912E+02     ; F-C-F, prebuilt f-c3-f
  634     632     635         1       107.360      5.932912E+02     ; F-C-F, prebuilt f-c3-f
  573     636     637         1       121.940      5.782288E+02     ; N-C-C, prebuilt c2-c2-na
  573     636     641         1       112.970      4.250944E+02     ; N-C-H, prebuilt h4-c2-na
  637     636     641         1       122.670      4.133792E+02     ; C-C-H, prebuilt c2-c2-h4
  572     637     636         1       121.940      5.782288E+02     ; N-C-C, prebuilt c2-c2-na
  572     637     638         1       117.200      5.539616E+02     ; N-C-C, prebuilt c3-c2-na
  636     637     638         1       123.630      5.363888E+02     ; C-C-C, prebuilt c2-c2-c3
  637     638     639         1       110.760      5.556352E+02     ; C-C-F, prebuilt c2-c3-f
  637     638     640         1       110.760      5.556352E+02     ; C-C-F, prebuilt c2-c3-f
  637     638     662         1       110.760      5.556352E+02     ; C-C-F, prebuilt c2-c3-f
  639     638     640         1       107.360      5.932912E+02     ; F-C-F, prebuilt f-c3-f
  639     638     662         1       107.360      5.932912E+02     ; F-C-F, prebuilt f-c3-f
  640     638     662         1       107.360      5.932912E+02     ; F-C-F, prebuilt f-c3-f
  572     663     664         1       108.780      4.167264E+02     ; N-C-H, prebuilt h1-c3-na
  572     663     665         1       108.780      4.167264E+02     ; N-C-H, prebuilt h1-c3-na
  572     663     666         1       108.780      4.167264E+02     ; N-C-H, prebuilt h1-c3-na
  664     663     665         1       108.460      3.280256E+02     ; H-C-H, prebuilt h1-c3-h1
  664     663     666         1       108.460      3.280256E+02     ; H-C-H, prebuilt h1-c3-h1
  665     663     666         1       108.460      3.280256E+02     ; H-C-H, prebuilt h1-c3-h1
  669     667     732         1       110.370      5.631664E+02     ; C-N-C, prebuilt c2-na-c2
  669     667     758         1       117.200      5.347152E+02     ; C-N-C, prebuilt c2-na-c3
  732     667     758         1       117.200      5.347152E+02     ; C-N-C, prebuilt c2-na-c3
  669     668     670         1       124.970      5.322048E+02     ; C-N-C, prebuilt c2-na-ca
  669     668     731         1       110.370      5.631664E+02     ; C-N-C, prebuilt c2-na-c2
  670     668     731         1       124.970      5.322048E+02     ; C-N-C, prebuilt c2-na-ca
  667     669     668         1       109.330      6.117008E+02     ; N-C-N, prebuilt na-c2-na
  667     669     706         1       125.309      5.000000E+02     ; N-C-C (na-c2-ca) missing and simply guessed
  668     669     706         1       128.451      5.000000E+02     ; N-C-C (na-c2-ca) missing and simply guessed
  668     670     671         1       118.340      5.782288E+02     ; N-C-C, prebuilt ca-ca-na
  668     670     675         1       118.340      5.782288E+02     ; N-C-C, prebuilt ca-ca-na
  671     670     675         1       120.020      5.573088E+02     ; C-C-C, prebuilt ca-ca-ca
  670     671     672         1       120.020      5.573088E+02     ; C-C-C, prebuilt ca-ca-ca
  670     671     737         1       119.880      4.033376E+02     ; C-C-H, prebuilt ca-ca-ha
  672     671     737         1       119.880      4.033376E+02     ; C-C-H, prebuilt ca-ca-ha
  671     672     673         1       120.020      5.573088E+02     ; C-C-C, prebuilt ca-ca-ca
  671     672     738         1       119.880      4.033376E+02     ; C-C-H, prebuilt ca-ca-ha
  673     672     738         1       119.880      4.033376E+02     ; C-C-H, prebuilt ca-ca-ha
  672     673     674         1       120.020      5.573088E+02     ; C-C-C, prebuilt ca-ca-ca
  672     673     676         1       120.190      5.681872E+02     ; C-C-N, prebuilt ca-ca-n
  674     673     676         1       120.190      5.681872E+02     ; C-C-N, prebuilt ca-ca-n
  673     674     675         1       120.020      5.573088E+02     ; C-C-C, prebuilt ca-ca-ca
  673     674     740         1       119.880      4.033376E+02     ; C-C-H, prebuilt ca-ca-ha
  675     674     740         1       119.880      4.033376E+02     ; C-C-H, prebuilt ca-ca-ha
  670     675     674         1       120.020      5.573088E+02     ; C-C-C, prebuilt ca-ca-ca
  670     675     739         1       119.880      4.033376E+02     ; C-C-H, prebuilt ca-ca-ha
  674     675     739         1       119.880      4.033376E+02     ; C-C-H, prebuilt ca-ca-ha
  673     676     677         1       123.710      5.338784E+02     ; C-N-C, prebuilt c-n-ca
  673     676     680         1       123.710      5.338784E+02     ; C-N-C, prebuilt c-n-ca
  677     676     680         1       127.080      5.330416E+02     ; C-N-C, prebuilt c-n-c
  676     677     678         1       115.250      5.665136E+02     ; N-C-C, prebuilt ca-c-n
  676     677     701         1       123.050      6.209056E+02     ; N-C-O, prebuilt n-c-o
  678     677     701         1       122.600      5.748816E+02     ; C-C-O, prebuilt ca-c-o
  677     678     679         1       120.330      5.380624E+02     ; C-C-C, prebuilt c-ca-ca
  677     678     682         1       120.330      5.380624E+02     ; C-C-C, prebuilt c-ca-ca
  679     678     682         1       120.020      5.573088E+02     ; C-C-C, prebuilt ca-ca-ca
  678     679     680         1       120.330      5.380624E+02     ; C-C-C, prebuilt c-ca-ca
  678     679     685         1       120.020      5.573088E+02     ; C-C-C, prebuilt ca-ca-ca
  680     679     685         1       120.330      5.380624E+02     ; C-C-C, prebuilt c-ca-ca
  676     680     679         1       115.250      5.665136E+02     ; N-C-C, prebuilt ca-c-n
  676     680     681         1       123.050      6.209056E+02     ; N-C-O, prebuilt n-c-o
  679     680     681         1       122.600      5.748816E+02     ; C-C-O, prebuilt ca-c-o
  678     682     683         1       120.020      5.573088E+02     ; C-C-C, prebuilt ca-ca-ca
  678     682     741         1       119.880      4.033376E+02     ; C-C-H, prebuilt ca-ca-ha
  683     682     741         1       119.880      4.033376E+02     ; C-C-H, prebuilt ca-ca-ha
  682     683     684         1       120.020      5.573088E+02     ; C-C-C, prebuilt ca-ca-ca
  682     683     692         1       120.770      5.313680E+02     ; C-C-C, prebuilt c3-ca-ca
  684     683     692         1       120.770      5.313680E+02     ; C-C-C, prebuilt c3-ca-ca
  683     684     685         1       120.020      5.573088E+02     ; C-C-C, prebuilt ca-ca-ca
  683     684     742         1       119.880      4.033376E+02     ; C-C-H, prebuilt ca-ca-ha
  685     684     742         1       119.880      4.033376E+02     ; C-C-H, prebuilt ca-ca-ha
  679     685     684         1       120.020      5.573088E+02     ; C-C-C, prebuilt ca-ca-ca
  679     685     743         1       119.880      4.033376E+02     ; C-C-H, prebuilt ca-ca-ha
  684     685     743         1       119.880      4.033376E+02     ; C-C-H, prebuilt ca-ca-ha
  687     686     689         1       120.020      5.573088E+02     ; C-C-C, prebuilt ca-ca-ca
  687     686     692         1       120.770      5.313680E+02     ; C-C-C, prebuilt c3-ca-ca
  689     686     692         1       120.770      5.313680E+02     ; C-C-C, prebuilt c3-ca-ca
  686     687     688         1       120.020      5.573088E+02     ; C-C-C, prebuilt ca-ca-ca
  686     687     745         1       119.880      4.033376E+02     ; C-C-H, prebuilt ca-ca-ha
  688     687     745         1       119.880      4.033376E+02     ; C-C-H, prebuilt ca-ca-ha
  687     688     690         1       120.020      5.573088E+02     ; C-C-C, prebuilt ca-ca-ca
  687     688     702         1       120.330      5.380624E+02     ; C-C-C, prebuilt c-ca-ca
  690     688     702         1       120.330      5.380624E+02     ; C-C-C, prebuilt c-ca-ca
  686     689     691         1       120.020      5.573088E+02     ; C-C-C, prebuilt ca-ca-ca
  686     689     744         1       119.880      4.033376E+02     ; C-C-H, prebuilt ca-ca-ha
  691     689     744         1       119.880      4.033376E+02     ; C-C-H, prebuilt ca-ca-ha
  688     690     691         1       120.020      5.573088E+02     ; C-C-C, prebuilt ca-ca-ca
  688     690     704         1       120.330      5.380624E+02     ; C-C-C, prebuilt c-ca-ca
  691     690     704         1       120.330      5.380624E+02     ; C-C-C, prebuilt c-ca-ca
  689     691     690         1       120.020      5.573088E+02     ; C-C-C, prebuilt ca-ca-ca
  689     691     746         1       119.880      4.033376E+02     ; C-C-H, prebuilt ca-ca-ha
  690     691     746         1       119.880      4.033376E+02     ; C-C-H, prebuilt ca-ca-ha
  683     692     686         1       112.240      5.322048E+02     ; C-C-C, prebuilt ca-c3-ca
  683     692     693         1       112.070      5.280208E+02     ; C-C-C, prebuilt c3-c3-ca
  683     692     697         1       112.070      5.280208E+02     ; C-C-C, prebuilt c3-c3-ca
  686     692     693         1       112.070      5.280208E+02     ; C-C-C, prebuilt c3-c3-ca
  686     692     697         1       112.070      5.280208E+02     ; C-C-C, prebuilt c3-c3-ca
  693     692     697         1       111.510      5.263472E+02     ; C-C-C, prebuilt c3-c3-c3
  692     693     694         1       109.240      5.531248E+02     ; C-C-F, prebuilt c3-c3-f
  692     693     695         1       109.240      5.531248E+02     ; C-C-F, prebuilt c3-c3-f
  692     693     696         1       109.240      5.531248E+02     ; C-C-F, prebuilt c3-c3-f
  694     693     695         1       107.360      5.932912E+02     ; F-C-F, prebuilt f-c3-f
  694     693     696         1       107.360      5.932912E+02     ; F-C-F, prebuilt f-c3-f
  695     693     696         1       107.360      5.932912E+02     ; F-C-F, prebuilt f-c3-f
  692     697     698         1       109.240      5.531248E+02     ; C-C-F, prebuilt c3-c3-f
  692     697     699         1       109.240      5.531248E+02     ; C-C-F, prebuilt c3-c3-f
  692     697     700         1       109.240      5.531248E+02     ; C-C-F, prebuilt c3-c3-f
  698     697     699         1       107.360      5.932912E+02     ; F-C-F, prebuilt f-c3-f
  698     697     700         1       107.360      5.932912E+02     ; F-C-F, prebuilt f-c3-f
  699     697     700         1       107.360      5.932912E+02     ; F-C-F, prebuilt f-c3-f
  688     702     703         1       115.250      5.665136E+02     ; C-C-N, prebuilt ca-c-n
  688     702     747         1       122.600      5.748816E+02     ; C-C-O, prebuilt ca-c-o
  703     702     747         1       123.050      6.209056E+02     ; N-C-O, prebuilt n-c-o
  702     703     704         1       127.080      5.330416E+02     ; C-N-C, prebuilt c-n-c
  702     703     819         1       123.710      5.338784E+02     ; C-N-C, prebuilt c-n-ca
  704     703     819         1       123.710      5.338784E+02     ; C-N-C, prebuilt c-n-ca
  690     704     703         1       115.250      5.665136E+02     ; C-C-N, prebuilt ca-c-n
  690     704     705         1       122.600      5.748816E+02     ; C-C-O, prebuilt ca-c-o
  703     704     705         1       123.050      6.209056E+02     ; N-C-O, prebuilt n-c-o
  669     706     707         1       120.600      5.589824E+02     ; C-C-C, prebuilt c2-ca-ca
  669     706     708         1       120.600      5.589824E+02     ; C-C-C, prebuilt c2-ca-ca
  707     706     708         1       120.020      5.573088E+02     ; C-C-C, prebuilt ca-ca-ca
  706     707     709         1       120.020      5.573088E+02     ; C-C-C, prebuilt ca-ca-ca
  706     707     748         1       119.880      4.033376E+02     ; C-C-H, prebuilt ca-ca-ha
  709     707     748         1       119.880      4.033376E+02     ; C-C-H, prebuilt ca-ca-ha
  706     708     710         1       120.020      5.573088E+02     ; C-C-C, prebuilt ca-ca-ca
  706     708     750         1       119.880      4.033376E+02     ; C-C-H, prebuilt ca-ca-ha
  710     708     750         1       119.880      4.033376E+02     ; C-C-H, prebuilt ca-ca-ha
  707     709     711         1       120.020      5.573088E+02     ; C-C-C, prebuilt ca-ca-ca
  707     709     749         1       119.880      4.033376E+02     ; C-C-H, prebuilt ca-ca-ha
  711     709     749         1       119.880      4.033376E+02     ; C-C-H, prebuilt ca-ca-ha
  708     710     711         1       120.020      5.573088E+02     ; C-C-C, prebuilt ca-ca-ca
  708     710     756         1       119.880      4.033376E+02     ; C-C-H, prebuilt ca-ca-ha
  711     710     756         1       119.880      4.033376E+02     ; C-C-H, prebuilt ca-ca-ha
  709     711     710         1       120.020      5.573088E+02     ; C-C-C, prebuilt ca-ca-ca
  709     711     712         1       120.600      5.589824E+02     ; C-C-C, prebuilt c2-ca-ca
  710     711     712         1       120.600      5.589824E+02     ; C-C-C, prebuilt c2-ca-ca
  711     712     713         1       128.467      5.000000E+02     ; C-C-N (ca-c2-na) missing and simply guessed
  711     712     714         1       125.522      5.000000E+02     ; C-C-N (ca-c2-na) missing and simply guessed
  713     712     714         1       109.330      6.117008E+02     ; N-C-N, prebuilt na-c2-na
  712     713     715         1       110.370      5.631664E+02     ; C-N-C, prebuilt c2-na-c2
  712     713     721         1       124.970      5.322048E+02     ; C-N-C, prebuilt c2-na-ca
  715     713     721         1       124.970      5.322048E+02     ; C-N-C, prebuilt c2-na-ca
  712     714     716         1       110.370      5.631664E+02     ; C-N-C, prebuilt c2-na-c2
  712     714     717         1       117.200      5.347152E+02     ; C-N-C, prebuilt c2-na-c3
  716     714     717         1       117.200      5.347152E+02     ; C-N-C, prebuilt c2-na-c3
  713     715     716         1       121.940      5.782288E+02     ; N-C-C, prebuilt c2-c2-na
  713     715     755         1       112.970      4.250944E+02     ; N-C-H, prebuilt h4-c2-na
  716     715     755         1       122.670      4.133792E+02     ; C-C-H, prebuilt c2-c2-h4
  714     716     715         1       121.940      5.782288E+02     ; N-C-C, prebuilt c2-c2-na
  714     716     727         1       117.200      5.539616E+02     ; N-C-C, prebuilt c3-c2-na
  715     716     727         1       123.630      5.363888E+02     ; C-C-C, prebuilt c2-c2-c3
  714     717     718         1       108.780      4.167264E+02     ; N-C-H, prebuilt h1-c3-na
  714     717     719         1       108.780      4.167264E+02     ; N-C-H, prebuilt h1-c3-na
  714     717     720         1       108.780      4.167264E+02     ; N-C-H, prebuilt h1-c3-na
  718     717     719         1       108.460      3.280256E+02     ; H-C-H, prebuilt h1-c3-h1
  718     717     720         1       108.460      3.280256E+02     ; H-C-H, prebuilt h1-c3-h1
  719     717     720         1       108.460      3.280256E+02     ; H-C-H, prebuilt h1-c3-h1
  713     721     722         1       118.340      5.782288E+02     ; N-C-C, prebuilt ca-ca-na
  713     721     726         1       118.340      5.782288E+02     ; N-C-C, prebuilt ca-ca-na
  722     721     726         1       120.020      5.573088E+02     ; C-C-C, prebuilt ca-ca-ca
  721     722     723         1       120.020      5.573088E+02     ; C-C-C, prebuilt ca-ca-ca
  721     722     752         1       119.880      4.033376E+02     ; C-C-H, prebuilt ca-ca-ha
  723     722     752         1       119.880      4.033376E+02     ; C-C-H, prebuilt ca-ca-ha
  722     723     724         1       120.020      5.573088E+02     ; C-C-C, prebuilt ca-ca-ca
  722     723     751         1       119.880      4.033376E+02     ; C-C-H, prebuilt ca-ca-ha
  724     723     751         1       119.880      4.033376E+02     ; C-C-H, prebuilt ca-ca-ha
  608     724     723         1       120.190      5.681872E+02     ; N-C-C, prebuilt ca-ca-n
  608     724     725         1       120.190      5.681872E+02     ; N-C-C, prebuilt ca-ca-n
  723     724     725         1       120.020      5.573088E+02     ; C-C-C, prebuilt ca-ca-ca
  724     725     726         1       120.020      5.573088E+02     ; C-C-C, prebuilt ca-ca-ca
  724     725     753         1       119.880      4.033376E+02     ; C-C-H, prebuilt ca-ca-ha
  726     725     753         1       119.880      4.033376E+02     ; C-C-H, prebuilt ca-ca-ha
  721     726     725         1       120.020      5.573088E+02     ; C-C-C, prebuilt ca-ca-ca
  721     726     754         1       119.880      4.033376E+02     ; C-C-H, prebuilt ca-ca-ha
  725     726     754         1       119.880      4.033376E+02     ; C-C-H, prebuilt ca-ca-ha
  716     727     728         1       110.760      5.556352E+02     ; C-C-F, prebuilt c2-c3-f
  716     727     729         1       110.760      5.556352E+02     ; C-C-F, prebuilt c2-c3-f
  716     727     730         1       110.760      5.556352E+02     ; C-C-F, prebuilt c2-c3-f
  728     727     729         1       107.360      5.932912E+02     ; F-C-F, prebuilt f-c3-f
  728     727     730         1       107.360      5.932912E+02     ; F-C-F, prebuilt f-c3-f
  729     727     730         1       107.360      5.932912E+02     ; F-C-F, prebuilt f-c3-f
  668     731     732         1       121.940      5.782288E+02     ; N-C-C, prebuilt c2-c2-na
  668     731     736         1       112.970      4.250944E+02     ; N-C-H, prebuilt h4-c2-na
  732     731     736         1       122.670      4.133792E+02     ; C-C-H, prebuilt c2-c2-h4
  667     732     731         1       121.940      5.782288E+02     ; N-C-C, prebuilt c2-c2-na
  667     732     733         1       117.200      5.539616E+02     ; N-C-C, prebuilt c3-c2-na
  731     732     733         1       123.630      5.363888E+02     ; C-C-C, prebuilt c2-c2-c3
  732     733     734         1       110.760      5.556352E+02     ; C-C-F, prebuilt c2-c3-f
  732     733     735         1       110.760      5.556352E+02     ; C-C-F, prebuilt c2-c3-f
  732     733     757         1       110.760      5.556352E+02     ; C-C-F, prebuilt c2-c3-f
  734     733     735         1       107.360      5.932912E+02     ; F-C-F, prebuilt f-c3-f
  734     733     757         1       107.360      5.932912E+02     ; F-C-F, prebuilt f-c3-f
  735     733     757         1       107.360      5.932912E+02     ; F-C-F, prebuilt f-c3-f
  667     758     759         1       108.780      4.167264E+02     ; N-C-H, prebuilt h1-c3-na
  667     758     760         1       108.780      4.167264E+02     ; N-C-H, prebuilt h1-c3-na
  667     758     761         1       108.780      4.167264E+02     ; N-C-H, prebuilt h1-c3-na
  759     758     760         1       108.460      3.280256E+02     ; H-C-H, prebuilt h1-c3-h1
  759     758     761         1       108.460      3.280256E+02     ; H-C-H, prebuilt h1-c3-h1
  760     758     761         1       108.460      3.280256E+02     ; H-C-H, prebuilt h1-c3-h1
  764     762     827         1       110.370      5.631664E+02     ; C-N-C, prebuilt c2-na-c2
  764     762     853         1       117.200      5.347152E+02     ; C-N-C, prebuilt c2-na-c3
  827     762     853         1       117.200      5.347152E+02     ; C-N-C, prebuilt c2-na-c3
  764     763     765         1       124.970      5.322048E+02     ; C-N-C, prebuilt c2-na-ca
  764     763     826         1       110.370      5.631664E+02     ; C-N-C, prebuilt c2-na-c2
  765     763     826         1       124.970      5.322048E+02     ; C-N-C, prebuilt c2-na-ca
  762     764     763         1       109.330      6.117008E+02     ; N-C-N, prebuilt na-c2-na
  762     764     801         1       124.962      5.000000E+02     ; N-C-C (na-c2-ca) missing and simply guessed
  763     764     801         1       128.749      5.000000E+02     ; N-C-C (na-c2-ca) missing and simply guessed
  763     765     766         1       118.340      5.782288E+02     ; N-C-C, prebuilt ca-ca-na
  763     765     770         1       118.340      5.782288E+02     ; N-C-C, prebuilt ca-ca-na
  766     765     770         1       120.020      5.573088E+02     ; C-C-C, prebuilt ca-ca-ca
  765     766     767         1       120.020      5.573088E+02     ; C-C-C, prebuilt ca-ca-ca
  765     766     832         1       119.880      4.033376E+02     ; C-C-H, prebuilt ca-ca-ha
  767     766     832         1       119.880      4.033376E+02     ; C-C-H, prebuilt ca-ca-ha
  766     767     768         1       120.020      5.573088E+02     ; C-C-C, prebuilt ca-ca-ca
  766     767     833         1       119.880      4.033376E+02     ; C-C-H, prebuilt ca-ca-ha
  768     767     833         1       119.880      4.033376E+02     ; C-C-H, prebuilt ca-ca-ha
  767     768     769         1       120.020      5.573088E+02     ; C-C-C, prebuilt ca-ca-ca
  767     768     771         1       120.190      5.681872E+02     ; C-C-N, prebuilt ca-ca-n
  769     768     771         1       120.190      5.681872E+02     ; C-C-N, prebuilt ca-ca-n
  768     769     770         1       120.020      5.573088E+02     ; C-C-C, prebuilt ca-ca-ca
  768     769     835         1       119.880      4.033376E+02     ; C-C-H, prebuilt ca-ca-ha
  770     769     835         1       119.880      4.033376E+02     ; C-C-H, prebuilt ca-ca-ha
  765     770     769         1       120.020      5.573088E+02     ; C-C-C, prebuilt ca-ca-ca
  765     770     834         1       119.880      4.033376E+02     ; C-C-H, prebuilt ca-ca-ha
  769     770     834         1       119.880      4.033376E+02     ; C-C-H, prebuilt ca-ca-ha
  768     771     772         1       123.710      5.338784E+02     ; C-N-C, prebuilt c-n-ca
  768     771     775         1       123.710      5.338784E+02     ; C-N-C, prebuilt c-n-ca
  772     771     775         1       127.080      5.330416E+02     ; C-N-C, prebuilt c-n-c
  771     772     773         1       115.250      5.665136E+02     ; N-C-C, prebuilt ca-c-n
  771     772     796         1       123.050      6.209056E+02     ; N-C-O, prebuilt n-c-o
  773     772     796         1       122.600      5.748816E+02     ; C-C-O, prebuilt ca-c-o
  772     773     774         1       120.330      5.380624E+02     ; C-C-C, prebuilt c-ca-ca
  772     773     777         1       120.330      5.380624E+02     ; C-C-C, prebuilt c-ca-ca
  774     773     777         1       120.020      5.573088E+02     ; C-C-C, prebuilt ca-ca-ca
  773     774     775         1       120.330      5.380624E+02     ; C-C-C, prebuilt c-ca-ca
  773     774     780         1       120.020      5.573088E+02     ; C-C-C, prebuilt ca-ca-ca
  775     774     780         1       120.330      5.380624E+02     ; C-C-C, prebuilt c-ca-ca
  771     775     774         1       115.250      5.665136E+02     ; N-C-C, prebuilt ca-c-n
  771     775     776         1       123.050      6.209056E+02     ; N-C-O, prebuilt n-c-o
  774     775     776         1       122.600      5.748816E+02     ; C-C-O, prebuilt ca-c-o
  773     777     778         1       120.020      5.573088E+02     ; C-C-C, prebuilt ca-ca-ca
  773     777     836         1       119.880      4.033376E+02     ; C-C-H, prebuilt ca-ca-ha
  778     777     836         1       119.880      4.033376E+02     ; C-C-H, prebuilt ca-ca-ha
  777     778     779         1       120.020      5.573088E+02     ; C-C-C, prebuilt ca-ca-ca
  777     778     787         1       120.770      5.313680E+02     ; C-C-C, prebuilt c3-ca-ca
  779     778     787         1       120.770      5.313680E+02     ; C-C-C, prebuilt c3-ca-ca
  778     779     780         1       120.020      5.573088E+02     ; C-C-C, prebuilt ca-ca-ca
  778     779     837         1       119.880      4.033376E+02     ; C-C-H, prebuilt ca-ca-ha
  780     779     837         1       119.880      4.033376E+02     ; C-C-H, prebuilt ca-ca-ha
  774     780     779         1       120.020      5.573088E+02     ; C-C-C, prebuilt ca-ca-ca
  774     780     838         1       119.880      4.033376E+02     ; C-C-H, prebuilt ca-ca-ha
  779     780     838         1       119.880      4.033376E+02     ; C-C-H, prebuilt ca-ca-ha
  782     781     784         1       120.020      5.573088E+02     ; C-C-C, prebuilt ca-ca-ca
  782     781     787         1       120.770      5.313680E+02     ; C-C-C, prebuilt c3-ca-ca
  784     781     787         1       120.770      5.313680E+02     ; C-C-C, prebuilt c3-ca-ca
  781     782     783         1       120.020      5.573088E+02     ; C-C-C, prebuilt ca-ca-ca
  781     782     840         1       119.880      4.033376E+02     ; C-C-H, prebuilt ca-ca-ha
  783     782     840         1       119.880      4.033376E+02     ; C-C-H, prebuilt ca-ca-ha
  782     783     785         1       120.020      5.573088E+02     ; C-C-C, prebuilt ca-ca-ca
  782     783     797         1       120.330      5.380624E+02     ; C-C-C, prebuilt c-ca-ca
  785     783     797         1       120.330      5.380624E+02     ; C-C-C, prebuilt c-ca-ca
  781     784     786         1       120.020      5.573088E+02     ; C-C-C, prebuilt ca-ca-ca
  781     784     839         1       119.880      4.033376E+02     ; C-C-H, prebuilt ca-ca-ha
  786     784     839         1       119.880      4.033376E+02     ; C-C-H, prebuilt ca-ca-ha
  783     785     786         1       120.020      5.573088E+02     ; C-C-C, prebuilt ca-ca-ca
  783     785     799         1       120.330      5.380624E+02     ; C-C-C, prebuilt c-ca-ca
  786     785     799         1       120.330      5.380624E+02     ; C-C-C, prebuilt c-ca-ca
  784     786     785         1       120.020      5.573088E+02     ; C-C-C, prebuilt ca-ca-ca
  784     786     841         1       119.880      4.033376E+02     ; C-C-H, prebuilt ca-ca-ha
  785     786     841         1       119.880      4.033376E+02     ; C-C-H, prebuilt ca-ca-ha
  778     787     781         1       112.240      5.322048E+02     ; C-C-C, prebuilt ca-c3-ca
  778     787     788         1       112.070      5.280208E+02     ; C-C-C, prebuilt c3-c3-ca
  778     787     792         1       112.070      5.280208E+02     ; C-C-C, prebuilt c3-c3-ca
  781     787     788         1       112.070      5.280208E+02     ; C-C-C, prebuilt c3-c3-ca
  781     787     792         1       112.070      5.280208E+02     ; C-C-C, prebuilt c3-c3-ca
  788     787     792         1       111.510      5.263472E+02     ; C-C-C, prebuilt c3-c3-c3
  787     788     789         1       109.240      5.531248E+02     ; C-C-F, prebuilt c3-c3-f
  787     788     790         1       109.240      5.531248E+02     ; C-C-F, prebuilt c3-c3-f
  787     788     791         1       109.240      5.531248E+02     ; C-C-F, prebuilt c3-c3-f
  789     788     790         1       107.360      5.932912E+02     ; F-C-F, prebuilt f-c3-f
  789     788     791         1       107.360      5.932912E+02     ; F-C-F, prebuilt f-c3-f
  790     788     791         1       107.360      5.932912E+02     ; F-C-F, prebuilt f-c3-f
  787     792     793         1       109.240      5.531248E+02     ; C-C-F, prebuilt c3-c3-f
  787     792     794         1       109.240      5.531248E+02     ; C-C-F, prebuilt c3-c3-f
  787     792     795         1       109.240      5.531248E+02     ; C-C-F, prebuilt c3-c3-f
  793     792     794         1       107.360      5.932912E+02     ; F-C-F, prebuilt f-c3-f
  793     792     795         1       107.360      5.932912E+02     ; F-C-F, prebuilt f-c3-f
  794     792     795         1       107.360      5.932912E+02     ; F-C-F, prebuilt f-c3-f
  783     797     798         1       115.250      5.665136E+02     ; C-C-N, prebuilt ca-c-n
  783     797     842         1       122.600      5.748816E+02     ; C-C-O, prebuilt ca-c-o
  798     797     842         1       123.050      6.209056E+02     ; N-C-O, prebuilt n-c-o
  797     798     799         1       127.080      5.330416E+02     ; C-N-C, prebuilt c-n-c
  797     798     914         1       123.710      5.338784E+02     ; C-N-C, prebuilt c-n-ca
  799     798     914         1       123.710      5.338784E+02     ; C-N-C, prebuilt c-n-ca
  785     799     798         1       115.250      5.665136E+02     ; C-C-N, prebuilt ca-c-n
  785     799     800         1       122.600      5.748816E+02     ; C-C-O, prebuilt ca-c-o
  798     799     800         1       123.050      6.209056E+02     ; N-C-O, prebuilt n-c-o
  764     801     802         1       120.600      5.589824E+02     ; C-C-C, prebuilt c2-ca-ca
  764     801     803         1       120.600      5.589824E+02     ; C-C-C, prebuilt c2-ca-ca
  802     801     803         1       120.020      5.573088E+02     ; C-C-C, prebuilt ca-ca-ca
  801     802     804         1       120.020      5.573088E+02     ; C-C-C, prebuilt ca-ca-ca
  801     802     843         1       119.880      4.033376E+02     ; C-C-H, prebuilt ca-ca-ha
  804     802     843         1       119.880      4.033376E+02     ; C-C-H, prebuilt ca-ca-ha
  801     803     805         1       120.020      5.573088E+02     ; C-C-C, prebuilt ca-ca-ca
  801     803     845         1       119.880      4.033376E+02     ; C-C-H, prebuilt ca-ca-ha
  805     803     845         1       119.880      4.033376E+02     ; C-C-H, prebuilt ca-ca-ha
  802     804     806         1       120.020      5.573088E+02     ; C-C-C, prebuilt ca-ca-ca
  802     804     844         1       119.880      4.033376E+02     ; C-C-H, prebuilt ca-ca-ha
  806     804     844         1       119.880      4.033376E+02     ; C-C-H, prebuilt ca-ca-ha
  803     805     806         1       120.020      5.573088E+02     ; C-C-C, prebuilt ca-ca-ca
  803     805     851         1       119.880      4.033376E+02     ; C-C-H, prebuilt ca-ca-ha
  806     805     851         1       119.880      4.033376E+02     ; C-C-H, prebuilt ca-ca-ha
  804     806     805         1       120.020      5.573088E+02     ; C-C-C, prebuilt ca-ca-ca
  804     806     807         1       120.600      5.589824E+02     ; C-C-C, prebuilt c2-ca-ca
  805     806     807         1       120.600      5.589824E+02     ; C-C-C, prebuilt c2-ca-ca
  806     807     808         1       128.747      5.000000E+02     ; C-C-N (ca-c2-na) missing and simply guessed
  806     807     809         1       125.083      5.000000E+02     ; C-C-N (ca-c2-na) missing and simply guessed
  808     807     809         1       109.330      6.117008E+02     ; N-C-N, prebuilt na-c2-na
  807     808     810         1       110.370      5.631664E+02     ; C-N-C, prebuilt c2-na-c2
  807     808     816         1       124.970      5.322048E+02     ; C-N-C, prebuilt c2-na-ca
  810     808     816         1       124.970      5.322048E+02     ; C-N-C, prebuilt c2-na-ca
  807     809     811         1       110.370      5.631664E+02     ; C-N-C, prebuilt c2-na-c2
  807     809     812         1       117.200      5.347152E+02     ; C-N-C, prebuilt c2-na-c3
  811     809     812         1       117.200      5.347152E+02     ; C-N-C, prebuilt c2-na-c3
  808     810     811         1       121.940      5.782288E+02     ; N-C-C, prebuilt c2-c2-na
  808     810     850         1       112.970      4.250944E+02     ; N-C-H, prebuilt h4-c2-na
  811     810     850         1       122.670      4.133792E+02     ; C-C-H, prebuilt c2-c2-h4
  809     811     810         1       121.940      5.782288E+02     ; N-C-C, prebuilt c2-c2-na
  809     811     822         1       117.200      5.539616E+02     ; N-C-C, prebuilt c3-c2-na
  810     811     822         1       123.630      5.363888E+02     ; C-C-C, prebuilt c2-c2-c3
  809     812     813         1       108.780      4.167264E+02     ; N-C-H, prebuilt h1-c3-na
  809     812     814         1       108.780      4.167264E+02     ; N-C-H, prebuilt h1-c3-na
  809     812     815         1       108.780      4.167264E+02     ; N-C-H, prebuilt h1-c3-na
  813     812     814         1       108.460      3.280256E+02     ; H-C-H, prebuilt h1-c3-h1
  813     812     815         1       108.460      3.280256E+02     ; H-C-H, prebuilt h1-c3-h1
  814     812     815         1       108.460      3.280256E+02     ; H-C-H, prebuilt h1-c3-h1
  808     816     817         1       118.340      5.782288E+02     ; N-C-C, prebuilt ca-ca-na
  808     816     821         1       118.340      5.782288E+02     ; N-C-C, prebuilt ca-ca-na
  817     816     821         1       120.020      5.573088E+02     ; C-C-C, prebuilt ca-ca-ca
  816     817     818         1       120.020      5.573088E+02     ; C-C-C, prebuilt ca-ca-ca
  816     817     847         1       119.880      4.033376E+02     ; C-C-H, prebuilt ca-ca-ha
  818     817     847         1       119.880      4.033376E+02     ; C-C-H, prebuilt ca-ca-ha
  817     818     819         1       120.020      5.573088E+02     ; C-C-C, prebuilt ca-ca-ca
  817     818     846         1       119.880      4.033376E+02     ; C-C-H, prebuilt ca-ca-ha
  819     818     846         1       119.880      4.033376E+02     ; C-C-H, prebuilt ca-ca-ha
  703     819     818         1       120.190      5.681872E+02     ; N-C-C, prebuilt ca-ca-n
  703     819     820         1       120.190      5.681872E+02     ; N-C-C, prebuilt ca-ca-n
  818     819     820         1       120.020      5.573088E+02     ; C-C-C, prebuilt ca-ca-ca
  819     820     821         1       120.020      5.573088E+02     ; C-C-C, prebuilt ca-ca-ca
  819     820     848         1       119.880      4.033376E+02     ; C-C-H, prebuilt ca-ca-ha
  821     820     848         1       119.880      4.033376E+02     ; C-C-H, prebuilt ca-ca-ha
  816     821     820         1       120.020      5.573088E+02     ; C-C-C, prebuilt ca-ca-ca
  816     821     849         1       119.880      4.033376E+02     ; C-C-H, prebuilt ca-ca-ha
  820     821     849         1       119.880      4.033376E+02     ; C-C-H, prebuilt ca-ca-ha
  811     822     823         1       110.760      5.556352E+02     ; C-C-F, prebuilt c2-c3-f
  811     822     824         1       110.760      5.556352E+02     ; C-C-F, prebuilt c2-c3-f
  811     822     825         1       110.760      5.556352E+02     ; C-C-F, prebuilt c2-c3-f
  823     822     824         1       107.360      5.932912E+02     ; F-C-F, prebuilt f-c3-f
  823     822     825         1       107.360      5.932912E+02     ; F-C-F, prebuilt f-c3-f
  824     822     825         1       107.360      5.932912E+02     ; F-C-F, prebuilt f-c3-f
  763     826     827         1       121.940      5.782288E+02     ; N-C-C, prebuilt c2-c2-na
  763     826     831         1       112.970      4.250944E+02     ; N-C-H, prebuilt h4-c2-na
  827     826     831         1       122.670      4.133792E+02     ; C-C-H, prebuilt c2-c2-h4
  762     827     826         1       121.940      5.782288E+02     ; N-C-C, prebuilt c2-c2-na
  762     827     828         1       117.200      5.539616E+02     ; N-C-C, prebuilt c3-c2-na
  826     827     828         1       123.630      5.363888E+02     ; C-C-C, prebuilt c2-c2-c3
  827     828     829         1       110.760      5.556352E+02     ; C-C-F, prebuilt c2-c3-f
  827     828     830         1       110.760      5.556352E+02     ; C-C-F, prebuilt c2-c3-f
  827     828     852         1       110.760      5.556352E+02     ; C-C-F, prebuilt c2-c3-f
  829     828     830         1       107.360      5.932912E+02     ; F-C-F, prebuilt f-c3-f
  829     828     852         1       107.360      5.932912E+02     ; F-C-F, prebuilt f-c3-f
  830     828     852         1       107.360      5.932912E+02     ; F-C-F, prebuilt f-c3-f
  762     853     854         1       108.780      4.167264E+02     ; N-C-H, prebuilt h1-c3-na
  762     853     855         1       108.780      4.167264E+02     ; N-C-H, prebuilt h1-c3-na
  762     853     856         1       108.780      4.167264E+02     ; N-C-H, prebuilt h1-c3-na
  854     853     855         1       108.460      3.280256E+02     ; H-C-H, prebuilt h1-c3-h1
  854     853     856         1       108.460      3.280256E+02     ; H-C-H, prebuilt h1-c3-h1
  855     853     856         1       108.460      3.280256E+02     ; H-C-H, prebuilt h1-c3-h1
  859     857     922         1       110.370      5.631664E+02     ; C-N-C, prebuilt c2-na-c2
  859     857     948         1       117.200      5.347152E+02     ; C-N-C, prebuilt c2-na-c3
  922     857     948         1       117.200      5.347152E+02     ; C-N-C, prebuilt c2-na-c3
  859     858     860         1       124.970      5.322048E+02     ; C-N-C, prebuilt c2-na-ca
  859     858     921         1       110.370      5.631664E+02     ; C-N-C, prebuilt c2-na-c2
  860     858     921         1       124.970      5.322048E+02     ; C-N-C, prebuilt c2-na-ca
  857     859     858         1       109.330      6.117008E+02     ; N-C-N, prebuilt na-c2-na
  857     859     896         1       124.998      5.000000E+02     ; N-C-C (na-c2-ca) missing and simply guessed
  858     859     896         1       128.633      5.000000E+02     ; N-C-C (na-c2-ca) missing and simply guessed
  858     860     861         1       118.340      5.782288E+02     ; N-C-C, prebuilt ca-ca-na
  858     860     865         1       118.340      5.782288E+02     ; N-C-C, prebuilt ca-ca-na
  861     860     865         1       120.020      5.573088E+02     ; C-C-C, prebuilt ca-ca-ca
  860     861     862         1       120.020      5.573088E+02     ; C-C-C, prebuilt ca-ca-ca
  860     861     927         1       119.880      4.033376E+02     ; C-C-H, prebuilt ca-ca-ha
  862     861     927         1       119.880      4.033376E+02     ; C-C-H, prebuilt ca-ca-ha
  861     862     863         1       120.020      5.573088E+02     ; C-C-C, prebuilt ca-ca-ca
  861     862     928         1       119.880      4.033376E+02     ; C-C-H, prebuilt ca-ca-ha
  863     862     928         1       119.880      4.033376E+02     ; C-C-H, prebuilt ca-ca-ha
  862     863     864         1       120.020      5.573088E+02     ; C-C-C, prebuilt ca-ca-ca
  862     863     866         1       120.190      5.681872E+02     ; C-C-N, prebuilt ca-ca-n
  864     863     866         1       120.190      5.681872E+02     ; C-C-N, prebuilt ca-ca-n
  863     864     865         1       120.020      5.573088E+02     ; C-C-C, prebuilt ca-ca-ca
  863     864     930         1       119.880      4.033376E+02     ; C-C-H, prebuilt ca-ca-ha
  865     864     930         1       119.880      4.033376E+02     ; C-C-H, prebuilt ca-ca-ha
  860     865     864         1       120.020      5.573088E+02     ; C-C-C, prebuilt ca-ca-ca
  860     865     929         1       119.880      4.033376E+02     ; C-C-H, prebuilt ca-ca-ha
  864     865     929         1       119.880      4.033376E+02     ; C-C-H, prebuilt ca-ca-ha
  863     866     867         1       123.710      5.338784E+02     ; C-N-C, prebuilt c-n-ca
  863     866     870         1       123.710      5.338784E+02     ; C-N-C, prebuilt c-n-ca
  867     866     870         1       127.080      5.330416E+02     ; C-N-C, prebuilt c-n-c
  866     867     868         1       115.250      5.665136E+02     ; N-C-C, prebuilt ca-c-n
  866     867     891         1       123.050      6.209056E+02     ; N-C-O, prebuilt n-c-o
  868     867     891         1       122.600      5.748816E+02     ; C-C-O, prebuilt ca-c-o
  867     868     869         1       120.330      5.380624E+02     ; C-C-C, prebuilt c-ca-ca
  867     868     872         1       120.330      5.380624E+02     ; C-C-C, prebuilt c-ca-ca
  869     868     872         1       120.020      5.573088E+02     ; C-C-C, prebuilt ca-ca-ca
  868     869     870         1       120.330      5.380624E+02     ; C-C-C, prebuilt c-ca-ca
  868     869     875         1       120.020      5.573088E+02     ; C-C-C, prebuilt ca-ca-ca
  870     869     875         1       120.330      5.380624E+02     ; C-C-C, prebuilt c-ca-ca
  866     870     869         1       115.250      5.665136E+02     ; N-C-C, prebuilt ca-c-n
  866     870     871         1       123.050      6.209056E+02     ; N-C-O, prebuilt n-c-o
  869     870     871         1       122.600      5.748816E+02     ; C-C-O, prebuilt ca-c-o
  868     872     873         1       120.020      5.573088E+02     ; C-C-C, prebuilt ca-ca-ca
  868     872     931         1       119.880      4.033376E+02     ; C-C-H, prebuilt ca-ca-ha
  873     872     931         1       119.880      4.033376E+02     ; C-C-H, prebuilt ca-ca-ha
  872     873     874         1       120.020      5.573088E+02     ; C-C-C, prebuilt ca-ca-ca
  872     873     882         1       120.770      5.313680E+02     ; C-C-C, prebuilt c3-ca-ca
  874     873     882         1       120.770      5.313680E+02     ; C-C-C, prebuilt c3-ca-ca
  873     874     875         1       120.020      5.573088E+02     ; C-C-C, prebuilt ca-ca-ca
  873     874     932         1       119.880      4.033376E+02     ; C-C-H, prebuilt ca-ca-ha
  875     874     932         1       119.880      4.033376E+02     ; C-C-H, prebuilt ca-ca-ha
  869     875     874         1       120.020      5.573088E+02     ; C-C-C, prebuilt ca-ca-ca
  869     875     933         1       119.880      4.033376E+02     ; C-C-H, prebuilt ca-ca-ha
  874     875     933         1       119.880      4.033376E+02     ; C-C-H, prebuilt ca-ca-ha
  877     876     879         1       120.020      5.573088E+02     ; C-C-C, prebuilt ca-ca-ca
  877     876     882         1       120.770      5.313680E+02     ; C-C-C, prebuilt c3-ca-ca
  879     876     882         1       120.770      5.313680E+02     ; C-C-C, prebuilt c3-ca-ca
  876     877     878         1       120.020      5.573088E+02     ; C-C-C, prebuilt ca-ca-ca
  876     877     935         1       119.880      4.033376E+02     ; C-C-H, prebuilt ca-ca-ha
  878     877     935         1       119.880      4.033376E+02     ; C-C-H, prebuilt ca-ca-ha
  877     878     880         1       120.020      5.573088E+02     ; C-C-C, prebuilt ca-ca-ca
  877     878     892         1       120.330      5.380624E+02     ; C-C-C, prebuilt c-ca-ca
  880     878     892         1       120.330      5.380624E+02     ; C-C-C, prebuilt c-ca-ca
  876     879     881         1       120.020      5.573088E+02     ; C-C-C, prebuilt ca-ca-ca
  876     879     934         1       119.880      4.033376E+02     ; C-C-H, prebuilt ca-ca-ha
  881     879     934         1       119.880      4.033376E+02     ; C-C-H, prebuilt ca-ca-ha
  878     880     881         1       120.020      5.573088E+02     ; C-C-C, prebuilt ca-ca-ca
  878     880     894         1       120.330      5.380624E+02     ; C-C-C, prebuilt c-ca-ca
  881     880     894         1       120.330      5.380624E+02     ; C-C-C, prebuilt c-ca-ca
  879     881     880         1       120.020      5.573088E+02     ; C-C-C, prebuilt ca-ca-ca
  879     881     936         1       119.880      4.033376E+02     ; C-C-H, prebuilt ca-ca-ha
  880     881     936         1       119.880      4.033376E+02     ; C-C-H, prebuilt ca-ca-ha
  873     882     876         1       112.240      5.322048E+02     ; C-C-C, prebuilt ca-c3-ca
  873     882     883         1       112.070      5.280208E+02     ; C-C-C, prebuilt c3-c3-ca
  873     882     887         1       112.070      5.280208E+02     ; C-C-C, prebuilt c3-c3-ca
  876     882     883         1       112.070      5.280208E+02     ; C-C-C, prebuilt c3-c3-ca
  876     882     887         1       112.070      5.280208E+02     ; C-C-C, prebuilt c3-c3-ca
  883     882     887         1       111.510      5.263472E+02     ; C-C-C, prebuilt c3-c3-c3
  882     883     884         1       109.240      5.531248E+02     ; C-C-F, prebuilt c3-c3-f
  882     883     885         1       109.240      5.531248E+02     ; C-C-F, prebuilt c3-c3-f
  882     883     886         1       109.240      5.531248E+02     ; C-C-F, prebuilt c3-c3-f
  884     883     885         1       107.360      5.932912E+02     ; F-C-F, prebuilt f-c3-f
  884     883     886         1       107.360      5.932912E+02     ; F-C-F, prebuilt f-c3-f
  885     883     886         1       107.360      5.932912E+02     ; F-C-F, prebuilt f-c3-f
  882     887     888         1       109.240      5.531248E+02     ; C-C-F, prebuilt c3-c3-f
  882     887     889         1       109.240      5.531248E+02     ; C-C-F, prebuilt c3-c3-f
  882     887     890         1       109.240      5.531248E+02     ; C-C-F, prebuilt c3-c3-f
  888     887     889         1       107.360      5.932912E+02     ; F-C-F, prebuilt f-c3-f
  888     887     890         1       107.360      5.932912E+02     ; F-C-F, prebuilt f-c3-f
  889     887     890         1       107.360      5.932912E+02     ; F-C-F, prebuilt f-c3-f
  878     892     893         1       115.250      5.665136E+02     ; C-C-N, prebuilt ca-c-n
  878     892     937         1       122.600      5.748816E+02     ; C-C-O, prebuilt ca-c-o
  893     892     937         1       123.050      6.209056E+02     ; N-C-O, prebuilt n-c-o
  892     893     894         1       127.080      5.330416E+02     ; C-N-C, prebuilt c-n-c
  892     893    1009         1       123.710      5.338784E+02     ; C-N-C, prebuilt c-n-ca
  894     893    1009         1       123.710      5.338784E+02     ; C-N-C, prebuilt c-n-ca
  880     894     893         1       115.250      5.665136E+02     ; C-C-N, prebuilt ca-c-n
  880     894     895         1       122.600      5.748816E+02     ; C-C-O, prebuilt ca-c-o
  893     894     895         1       123.050      6.209056E+02     ; N-C-O, prebuilt n-c-o
  859     896     897         1       120.600      5.589824E+02     ; C-C-C, prebuilt c2-ca-ca
  859     896     898         1       120.600      5.589824E+02     ; C-C-C, prebuilt c2-ca-ca
  897     896     898         1       120.020      5.573088E+02     ; C-C-C, prebuilt ca-ca-ca
  896     897     899         1       120.020      5.573088E+02     ; C-C-C, prebuilt ca-ca-ca
  896     897     938         1       119.880      4.033376E+02     ; C-C-H, prebuilt ca-ca-ha
  899     897     938         1       119.880      4.033376E+02     ; C-C-H, prebuilt ca-ca-ha
  896     898     900         1       120.020      5.573088E+02     ; C-C-C, prebuilt ca-ca-ca
  896     898     940         1       119.880      4.033376E+02     ; C-C-H, prebuilt ca-ca-ha
  900     898     940         1       119.880      4.033376E+02     ; C-C-H, prebuilt ca-ca-ha
  897     899     901         1       120.020      5.573088E+02     ; C-C-C, prebuilt ca-ca-ca
  897     899     939         1       119.880      4.033376E+02     ; C-C-H, prebuilt ca-ca-ha
  901     899     939         1       119.880      4.033376E+02     ; C-C-H, prebuilt ca-ca-ha
  898     900     901         1       120.020      5.573088E+02     ; C-C-C, prebuilt ca-ca-ca
  898     900     946         1       119.880      4.033376E+02     ; C-C-H, prebuilt ca-ca-ha
  901     900     946         1       119.880      4.033376E+02     ; C-C-H, prebuilt ca-ca-ha
  899     901     900         1       120.020      5.573088E+02     ; C-C-C, prebuilt ca-ca-ca
  899     901     902         1       120.600      5.589824E+02     ; C-C-C, prebuilt c2-ca-ca
  900     901     902         1       120.600      5.589824E+02     ; C-C-C, prebuilt c2-ca-ca
  901     902     903         1       128.399      5.000000E+02     ; C-C-N (ca-c2-na) missing and simply guessed
  901     902     904         1       125.661      5.000000E+02     ; C-C-N (ca-c2-na) missing and simply guessed
  903     902     904         1       109.330      6.117008E+02     ; N-C-N, prebuilt na-c2-na
  902     903     905         1       110.370      5.631664E+02     ; C-N-C, prebuilt c2-na-c2
  902     903     911         1       124.970      5.322048E+02     ; C-N-C, prebuilt c2-na-ca
  905     903     911         1       124.970      5.322048E+02     ; C-N-C, prebuilt c2-na-ca
  902     904     906         1       110.370      5.631664E+02     ; C-N-C, prebuilt c2-na-c2
  902     904     907         1       117.200      5.347152E+02     ; C-N-C, prebuilt c2-na-c3
  906     904     907         1       117.200      5.347152E+02     ; C-N-C, prebuilt c2-na-c3
  903     905     906         1       121.940      5.782288E+02     ; N-C-C, prebuilt c2-c2-na
  903     905     945         1       112.970      4.250944E+02     ; N-C-H, prebuilt h4-c2-na
  906     905     945         1       122.670      4.133792E+02     ; C-C-H, prebuilt c2-c2-h4
  904     906     905         1       121.940      5.782288E+02     ; N-C-C, prebuilt c2-c2-na
  904     906     917         1       117.200      5.539616E+02     ; N-C-C, prebuilt c3-c2-na
  905     906     917         1       123.630      5.363888E+02     ; C-C-C, prebuilt c2-c2-c3
  904     907     908         1       108.780      4.167264E+02     ; N-C-H, prebuilt h1-c3-na
  904     907     909         1       108.780      4.167264E+02     ; N-C-H, prebuilt h1-c3-na
  904     907     910         1       108.780      4.167264E+02     ; N-C-H, prebuilt h1-c3-na
  908     907     909         1       108.460      3.280256E+02     ; H-C-H, prebuilt h1-c3-h1
  908     907     910         1       108.460      3.280256E+02     ; H-C-H, prebuilt h1-c3-h1
  909     907     910         1       108.460      3.280256E+02     ; H-C-H, prebuilt h1-c3-h1
  903     911     912         1       118.340      5.782288E+02     ; N-C-C, prebuilt ca-ca-na
  903     911     916         1       118.340      5.782288E+02     ; N-C-C, prebuilt ca-ca-na
  912     911     916         1       120.020      5.573088E+02     ; C-C-C, prebuilt ca-ca-ca
  911     912     913         1       120.020      5.573088E+02     ; C-C-C, prebuilt ca-ca-ca
  911     912     942         1       119.880      4.033376E+02     ; C-C-H, prebuilt ca-ca-ha
  913     912     942         1       119.880      4.033376E+02     ; C-C-H, prebuilt ca-ca-ha
  912     913     914         1       120.020      5.573088E+02     ; C-C-C, prebuilt ca-ca-ca
  912     913     941         1       119.880      4.033376E+02     ; C-C-H, prebuilt ca-ca-ha
  914     913     941         1       119.880      4.033376E+02     ; C-C-H, prebuilt ca-ca-ha
  798     914     913         1       120.190      5.681872E+02     ; N-C-C, prebuilt ca-ca-n
  798     914     915         1       120.190      5.681872E+02     ; N-C-C, prebuilt ca-ca-n
  913     914     915         1       120.020      5.573088E+02     ; C-C-C, prebuilt ca-ca-ca
  914     915     916         1       120.020      5.573088E+02     ; C-C-C, prebuilt ca-ca-ca
  914     915     943         1       119.880      4.033376E+02     ; C-C-H, prebuilt ca-ca-ha
  916     915     943         1       119.880      4.033376E+02     ; C-C-H, prebuilt ca-ca-ha
  911     916     915         1       120.020      5.573088E+02     ; C-C-C, prebuilt ca-ca-ca
  911     916     944         1       119.880      4.033376E+02     ; C-C-H, prebuilt ca-ca-ha
  915     916     944         1       119.880      4.033376E+02     ; C-C-H, prebuilt ca-ca-ha
  906     917     918         1       110.760      5.556352E+02     ; C-C-F, prebuilt c2-c3-f
  906     917     919         1       110.760      5.556352E+02     ; C-C-F, prebuilt c2-c3-f
  906     917     920         1       110.760      5.556352E+02     ; C-C-F, prebuilt c2-c3-f
  918     917     919         1       107.360      5.932912E+02     ; F-C-F, prebuilt f-c3-f
  918     917     920         1       107.360      5.932912E+02     ; F-C-F, prebuilt f-c3-f
  919     917     920         1       107.360      5.932912E+02     ; F-C-F, prebuilt f-c3-f
  858     921     922         1       121.940      5.782288E+02     ; N-C-C, prebuilt c2-c2-na
  858     921     926         1       112.970      4.250944E+02     ; N-C-H, prebuilt h4-c2-na
  922     921     926         1       122.670      4.133792E+02     ; C-C-H, prebuilt c2-c2-h4
  857     922     921         1       121.940      5.782288E+02     ; N-C-C, prebuilt c2-c2-na
  857     922     923         1       117.200      5.539616E+02     ; N-C-C, prebuilt c3-c2-na
  921     922     923         1       123.630      5.363888E+02     ; C-C-C, prebuilt c2-c2-c3
  922     923     924         1       110.760      5.556352E+02     ; C-C-F, prebuilt c2-c3-f
  922     923     925         1       110.760      5.556352E+02     ; C-C-F, prebuilt c2-c3-f
  922     923     947         1       110.760      5.556352E+02     ; C-C-F, prebuilt c2-c3-f
  924     923     925         1       107.360      5.932912E+02     ; F-C-F, prebuilt f-c3-f
  924     923     947         1       107.360      5.932912E+02     ; F-C-F, prebuilt f-c3-f
  925     923     947         1       107.360      5.932912E+02     ; F-C-F, prebuilt f-c3-f
  857     948     949         1       108.780      4.167264E+02     ; N-C-H, prebuilt h1-c3-na
  857     948     950         1       108.780      4.167264E+02     ; N-C-H, prebuilt h1-c3-na
  857     948     951         1       108.780      4.167264E+02     ; N-C-H, prebuilt h1-c3-na
  949     948     950         1       108.460      3.280256E+02     ; H-C-H, prebuilt h1-c3-h1
  949     948     951         1       108.460      3.280256E+02     ; H-C-H, prebuilt h1-c3-h1
  950     948     951         1       108.460      3.280256E+02     ; H-C-H, prebuilt h1-c3-h1
  954     952    1017         1       110.370      5.631664E+02     ; C-N-C, prebuilt c2-na-c2
  954     952    1043         1       117.200      5.347152E+02     ; C-N-C, prebuilt c2-na-c3
 1017     952    1043         1       117.200      5.347152E+02     ; C-N-C, prebuilt c2-na-c3
  954     953     955         1       124.970      5.322048E+02     ; C-N-C, prebuilt c2-na-ca
  954     953    1016         1       110.370      5.631664E+02     ; C-N-C, prebuilt c2-na-c2
  955     953    1016         1       124.970      5.322048E+02     ; C-N-C, prebuilt c2-na-ca
  952     954     953         1       109.330      6.117008E+02     ; N-C-N, prebuilt na-c2-na
  952     954     991         1       124.909      5.000000E+02     ; N-C-C (na-c2-ca) missing and simply guessed
  953     954     991         1       128.423      5.000000E+02     ; N-C-C (na-c2-ca) missing and simply guessed
  953     955     956         1       118.340      5.782288E+02     ; N-C-C, prebuilt ca-ca-na
  953     955     960         1       118.340      5.782288E+02     ; N-C-C, prebuilt ca-ca-na
  956     955     960         1       120.020      5.573088E+02     ; C-C-C, prebuilt ca-ca-ca
  955     956     957         1       120.020      5.573088E+02     ; C-C-C, prebuilt ca-ca-ca
  955     956    1022         1       119.880      4.033376E+02     ; C-C-H, prebuilt ca-ca-ha
  957     956    1022         1       119.880      4.033376E+02     ; C-C-H, prebuilt ca-ca-ha
  956     957     958         1       120.020      5.573088E+02     ; C-C-C, prebuilt ca-ca-ca
  956     957    1023         1       119.880      4.033376E+02     ; C-C-H, prebuilt ca-ca-ha
  958     957    1023         1       119.880      4.033376E+02     ; C-C-H, prebuilt ca-ca-ha
  957     958     959         1       120.020      5.573088E+02     ; C-C-C, prebuilt ca-ca-ca
  957     958     961         1       120.190      5.681872E+02     ; C-C-N, prebuilt ca-ca-n
  959     958     961         1       120.190      5.681872E+02     ; C-C-N, prebuilt ca-ca-n
  958     959     960         1       120.020      5.573088E+02     ; C-C-C, prebuilt ca-ca-ca
  958     959    1025         1       119.880      4.033376E+02     ; C-C-H, prebuilt ca-ca-ha
  960     959    1025         1       119.880      4.033376E+02     ; C-C-H, prebuilt ca-ca-ha
  955     960     959         1       120.020      5.573088E+02     ; C-C-C, prebuilt ca-ca-ca
  955     960    1024         1       119.880      4.033376E+02     ; C-C-H, prebuilt ca-ca-ha
  959     960    1024         1       119.880      4.033376E+02     ; C-C-H, prebuilt ca-ca-ha
  958     961     962         1       123.710      5.338784E+02     ; C-N-C, prebuilt c-n-ca
  958     961     965         1       123.710      5.338784E+02     ; C-N-C, prebuilt c-n-ca
  962     961     965         1       127.080      5.330416E+02     ; C-N-C, prebuilt c-n-c
  961     962     963         1       115.250      5.665136E+02     ; N-C-C, prebuilt ca-c-n
  961     962     986         1       123.050      6.209056E+02     ; N-C-O, prebuilt n-c-o
  963     962     986         1       122.600      5.748816E+02     ; C-C-O, prebuilt ca-c-o
  962     963     964         1       120.330      5.380624E+02     ; C-C-C, prebuilt c-ca-ca
  962     963     967         1       120.330      5.380624E+02     ; C-C-C, prebuilt c-ca-ca
  964     963     967         1       120.020      5.573088E+02     ; C-C-C, prebuilt ca-ca-ca
  963     964     965         1       120.330      5.380624E+02     ; C-C-C, prebuilt c-ca-ca
  963     964     970         1       120.020      5.573088E+02     ; C-C-C, prebuilt ca-ca-ca
  965     964     970         1       120.330      5.380624E+02     ; C-C-C, prebuilt c-ca-ca
  961     965     964         1       115.250      5.665136E+02     ; N-C-C, prebuilt ca-c-n
  961     965     966         1       123.050      6.209056E+02     ; N-C-O, prebuilt n-c-o
  964     965     966         1       122.600      5.748816E+02     ; C-C-O, prebuilt ca-c-o
  963     967     968         1       120.020      5.573088E+02     ; C-C-C, prebuilt ca-ca-ca
  963     967    1026         1       119.880      4.033376E+02     ; C-C-H, prebuilt ca-ca-ha
  968     967    1026         1       119.880      4.033376E+02     ; C-C-H, prebuilt ca-ca-ha
  967     968     969         1       120.020      5.573088E+02     ; C-C-C, prebuilt ca-ca-ca
  967     968     977         1       120.770      5.313680E+02     ; C-C-C, prebuilt c3-ca-ca
  969     968     977         1       120.770      5.313680E+02     ; C-C-C, prebuilt c3-ca-ca
  968     969     970         1       120.020      5.573088E+02     ; C-C-C, prebuilt ca-ca-ca
  968     969    1027         1       119.880      4.033376E+02     ; C-C-H, prebuilt ca-ca-ha
  970     969    1027         1       119.880      4.033376E+02     ; C-C-H, prebuilt ca-ca-ha
  964     970     969         1       120.020      5.573088E+02     ; C-C-C, prebuilt ca-ca-ca
  964     970    1028         1       119.880      4.033376E+02     ; C-C-H, prebuilt ca-ca-ha
  969     970    1028         1       119.880      4.033376E+02     ; C-C-H, prebuilt ca-ca-ha
  972     971     974         1       120.020      5.573088E+02     ; C-C-C, prebuilt ca-ca-ca
  972     971     977         1       120.770      5.313680E+02     ; C-C-C, prebuilt c3-ca-ca
  974     971     977         1       120.770      5.313680E+02     ; C-C-C, prebuilt c3-ca-ca
  971     972     973         1       120.020      5.573088E+02     ; C-C-C, prebuilt ca-ca-ca
  971     972    1030         1       119.880      4.033376E+02     ; C-C-H, prebuilt ca-ca-ha
  973     972    1030         1       119.880      4.033376E+02     ; C-C-H, prebuilt ca-ca-ha
  972     973     975         1       120.020      5.573088E+02     ; C-C-C, prebuilt ca-ca-ca
  972     973     987         1       120.330      5.380624E+02     ; C-C-C, prebuilt c-ca-ca
  975     973     987         1       120.330      5.380624E+02     ; C-C-C, prebuilt c-ca-ca
  971     974     976         1       120.020      5.573088E+02     ; C-C-C, prebuilt ca-ca-ca
  971     974    1029         1       119.880      4.033376E+02     ; C-C-H, prebuilt ca-ca-ha
  976     974    1029         1       119.880      4.033376E+02     ; C-C-H, prebuilt ca-ca-ha
  973     975     976         1       120.020      5.573088E+02     ; C-C-C, prebuilt ca-ca-ca
  973     975     989         1       120.330      5.380624E+02     ; C-C-C, prebuilt c-ca-ca
  976     975     989         1       120.330      5.380624E+02     ; C-C-C, prebuilt c-ca-ca
  974     976     975         1       120.020      5.573088E+02     ; C-C-C, prebuilt ca-ca-ca
  974     976    1031         1       119.880      4.033376E+02     ; C-C-H, prebuilt ca-ca-ha
  975     976    1031         1       119.880      4.033376E+02     ; C-C-H, prebuilt ca-ca-ha
  968     977     971         1       112.240      5.322048E+02     ; C-C-C, prebuilt ca-c3-ca
  968     977     978         1       112.070      5.280208E+02     ; C-C-C, prebuilt c3-c3-ca
  968     977     982         1       112.070      5.280208E+02     ; C-C-C, prebuilt c3-c3-ca
  971     977     978         1       112.070      5.280208E+02     ; C-C-C, prebuilt c3-c3-ca
  971     977     982         1       112.070      5.280208E+02     ; C-C-C, prebuilt c3-c3-ca
  978     977     982         1       111.510      5.263472E+02     ; C-C-C, prebuilt c3-c3-c3
  977     978     979         1       109.240      5.531248E+02     ; C-C-F, prebuilt c3-c3-f
  977     978     980         1       109.240      5.531248E+02     ; C-C-F, prebuilt c3-c3-f
  977     978     981         1       109.240      5.531248E+02     ; C-C-F, prebuilt c3-c3-f
  979     978     980         1       107.360      5.932912E+02     ; F-C-F, prebuilt f-c3-f
  979     978     981         1       107.360      5.932912E+02     ; F-C-F, prebuilt f-c3-f
  980     978     981         1       107.360      5.932912E+02     ; F-C-F, prebuilt f-c3-f
  977     982     983         1       109.240      5.531248E+02     ; C-C-F, prebuilt c3-c3-f
  977     982     984         1       109.240      5.531248E+02     ; C-C-F, prebuilt c3-c3-f
  977     982     985         1       109.240      5.531248E+02     ; C-C-F, prebuilt c3-c3-f
  983     982     984         1       107.360      5.932912E+02     ; F-C-F, prebuilt f-c3-f
  983     982     985         1       107.360      5.932912E+02     ; F-C-F, prebuilt f-c3-f
  984     982     985         1       107.360      5.932912E+02     ; F-C-F, prebuilt f-c3-f
  973     987     988         1       115.250      5.665136E+02     ; C-C-N, prebuilt ca-c-n
  973     987    1032         1       122.600      5.748816E+02     ; C-C-O, prebuilt ca-c-o
  988     987    1032         1       123.050      6.209056E+02     ; N-C-O, prebuilt n-c-o
  987     988     989         1       127.080      5.330416E+02     ; C-N-C, prebuilt c-n-c
  987     988    1104         1       123.710      5.338784E+02     ; C-N-C, prebuilt c-n-ca
  989     988    1104         1       123.710      5.338784E+02     ; C-N-C, prebuilt c-n-ca
  975     989     988         1       115.250      5.665136E+02     ; C-C-N, prebuilt ca-c-n
  975     989     990         1       122.600      5.748816E+02     ; C-C-O, prebuilt ca-c-o
  988     989     990         1       123.050      6.209056E+02     ; N-C-O, prebuilt n-c-o
  954     991     992         1       120.600      5.589824E+02     ; C-C-C, prebuilt c2-ca-ca
  954     991     993         1       120.600      5.589824E+02     ; C-C-C, prebuilt c2-ca-ca
  992     991     993         1       120.020      5.573088E+02     ; C-C-C, prebuilt ca-ca-ca
  991     992     994         1       120.020      5.573088E+02     ; C-C-C, prebuilt ca-ca-ca
  991     992    1033         1       119.880      4.033376E+02     ; C-C-H, prebuilt ca-ca-ha
  994     992    1033         1       119.880      4.033376E+02     ; C-C-H, prebuilt ca-ca-ha
  991     993     995         1       120.020      5.573088E+02     ; C-C-C, prebuilt ca-ca-ca
  991     993    1035         1       119.880      4.033376E+02     ; C-C-H, prebuilt ca-ca-ha
  995     993    1035         1       119.880      4.033376E+02     ; C-C-H, prebuilt ca-ca-ha
  992     994     996         1       120.020      5.573088E+02     ; C-C-C, prebuilt ca-ca-ca
  992     994    1034         1       119.880      4.033376E+02     ; C-C-H, prebuilt ca-ca-ha
  996     994    1034         1       119.880      4.033376E+02     ; C-C-H, prebuilt ca-ca-ha
  993     995     996         1       120.020      5.573088E+02     ; C-C-C, prebuilt ca-ca-ca
  993     995    1041         1       119.880      4.033376E+02     ; C-C-H, prebuilt ca-ca-ha
  996     995    1041         1       119.880      4.033376E+02     ; C-C-H, prebuilt ca-ca-ha
  994     996     995         1       120.020      5.573088E+02     ; C-C-C, prebuilt ca-ca-ca
  994     996     997         1       120.600      5.589824E+02     ; C-C-C, prebuilt c2-ca-ca
  995     996     997         1       120.600      5.589824E+02     ; C-C-C, prebuilt c2-ca-ca
  996     997     998         1       129.713      5.000000E+02     ; C-C-N (ca-c2-na) missing and simply guessed
  996     997     999         1       124.455      5.000000E+02     ; C-C-N (ca-c2-na) missing and simply guessed
  998     997     999         1       109.330      6.117008E+02     ; N-C-N, prebuilt na-c2-na
  997     998    1000         1       110.370      5.631664E+02     ; C-N-C, prebuilt c2-na-c2
  997     998    1006         1       124.970      5.322048E+02     ; C-N-C, prebuilt c2-na-ca
 1000     998    1006         1       124.970      5.322048E+02     ; C-N-C, prebuilt c2-na-ca
  997     999    1001         1       110.370      5.631664E+02     ; C-N-C, prebuilt c2-na-c2
  997     999    1002         1       117.200      5.347152E+02     ; C-N-C, prebuilt c2-na-c3
 1001     999    1002         1       117.200      5.347152E+02     ; C-N-C, prebuilt c2-na-c3
  998    1000    1001         1       121.940      5.782288E+02     ; N-C-C, prebuilt c2-c2-na
  998    1000    1040         1       112.970      4.250944E+02     ; N-C-H, prebuilt h4-c2-na
 1001    1000    1040         1       122.670      4.133792E+02     ; C-C-H, prebuilt c2-c2-h4
  999    1001    1000         1       121.940      5.782288E+02     ; N-C-C, prebuilt c2-c2-na
  999    1001    1012         1       117.200      5.539616E+02     ; N-C-C, prebuilt c3-c2-na
 1000    1001    1012         1       123.630      5.363888E+02     ; C-C-C, prebuilt c2-c2-c3
  999    1002    1003         1       108.780      4.167264E+02     ; N-C-H, prebuilt h1-c3-na
  999    1002    1004         1       108.780      4.167264E+02     ; N-C-H, prebuilt h1-c3-na
  999    1002    1005         1       108.780      4.167264E+02     ; N-C-H, prebuilt h1-c3-na
 1003    1002    1004         1       108.460      3.280256E+02     ; H-C-H, prebuilt h1-c3-h1
 1003    1002    1005         1       108.460      3.280256E+02     ; H-C-H, prebuilt h1-c3-h1
 1004    1002    1005         1       108.460      3.280256E+02     ; H-C-H, prebuilt h1-c3-h1
  998    1006    1007         1       118.340      5.782288E+02     ; N-C-C, prebuilt ca-ca-na
  998    1006    1011         1       118.340      5.782288E+02     ; N-C-C, prebuilt ca-ca-na
 1007    1006    1011         1       120.020      5.573088E+02     ; C-C-C, prebuilt ca-ca-ca
 1006    1007    1008         1       120.020      5.573088E+02     ; C-C-C, prebuilt ca-ca-ca
 1006    1007    1037         1       119.880      4.033376E+02     ; C-C-H, prebuilt ca-ca-ha
 1008    1007    1037         1       119.880      4.033376E+02     ; C-C-H, prebuilt ca-ca-ha
 1007    1008    1009         1       120.020      5.573088E+02     ; C-C-C, prebuilt ca-ca-ca
 1007    1008    1036         1       119.880      4.033376E+02     ; C-C-H, prebuilt ca-ca-ha
 1009    1008    1036         1       119.880      4.033376E+02     ; C-C-H, prebuilt ca-ca-ha
  893    1009    1008         1       120.190      5.681872E+02     ; N-C-C, prebuilt ca-ca-n
  893    1009    1010         1       120.190      5.681872E+02     ; N-C-C, prebuilt ca-ca-n
 1008    1009    1010         1       120.020      5.573088E+02     ; C-C-C, prebuilt ca-ca-ca
 1009    1010    1011         1       120.020      5.573088E+02     ; C-C-C, prebuilt ca-ca-ca
 1009    1010    1038         1       119.880      4.033376E+02     ; C-C-H, prebuilt ca-ca-ha
 1011    1010    1038         1       119.880      4.033376E+02     ; C-C-H, prebuilt ca-ca-ha
 1006    1011    1010         1       120.020      5.573088E+02     ; C-C-C, prebuilt ca-ca-ca
 1006    1011    1039         1       119.880      4.033376E+02     ; C-C-H, prebuilt ca-ca-ha
 1010    1011    1039         1       119.880      4.033376E+02     ; C-C-H, prebuilt ca-ca-ha
 1001    1012    1013         1       110.760      5.556352E+02     ; C-C-F, prebuilt c2-c3-f
 1001    1012    1014         1       110.760      5.556352E+02     ; C-C-F, prebuilt c2-c3-f
 1001    1012    1015         1       110.760      5.556352E+02     ; C-C-F, prebuilt c2-c3-f
 1013    1012    1014         1       107.360      5.932912E+02     ; F-C-F, prebuilt f-c3-f
 1013    1012    1015         1       107.360      5.932912E+02     ; F-C-F, prebuilt f-c3-f
 1014    1012    1015         1       107.360      5.932912E+02     ; F-C-F, prebuilt f-c3-f
  953    1016    1017         1       121.940      5.782288E+02     ; N-C-C, prebuilt c2-c2-na
  953    1016    1021         1       112.970      4.250944E+02     ; N-C-H, prebuilt h4-c2-na
 1017    1016    1021         1       122.670      4.133792E+02     ; C-C-H, prebuilt c2-c2-h4
  952    1017    1016         1       121.940      5.782288E+02     ; N-C-C, prebuilt c2-c2-na
  952    1017    1018         1       117.200      5.539616E+02     ; N-C-C, prebuilt c3-c2-na
 1016    1017    1018         1       123.630      5.363888E+02     ; C-C-C, prebuilt c2-c2-c3
 1017    1018    1019         1       110.760      5.556352E+02     ; C-C-F, prebuilt c2-c3-f
 1017    1018    1020         1       110.760      5.556352E+02     ; C-C-F, prebuilt c2-c3-f
 1017    1018    1042         1       110.760      5.556352E+02     ; C-C-F, prebuilt c2-c3-f
 1019    1018    1020         1       107.360      5.932912E+02     ; F-C-F, prebuilt f-c3-f
 1019    1018    1042         1       107.360      5.932912E+02     ; F-C-F, prebuilt f-c3-f
 1020    1018    1042         1       107.360      5.932912E+02     ; F-C-F, prebuilt f-c3-f
  952    1043    1044         1       108.780      4.167264E+02     ; N-C-H, prebuilt h1-c3-na
  952    1043    1045         1       108.780      4.167264E+02     ; N-C-H, prebuilt h1-c3-na
  952    1043    1046         1       108.780      4.167264E+02     ; N-C-H, prebuilt h1-c3-na
 1044    1043    1045         1       108.460      3.280256E+02     ; H-C-H, prebuilt h1-c3-h1
 1044    1043    1046         1       108.460      3.280256E+02     ; H-C-H, prebuilt h1-c3-h1
 1045    1043    1046         1       108.460      3.280256E+02     ; H-C-H, prebuilt h1-c3-h1
 1049    1047    1112         1       110.370      5.631664E+02     ; C-N-C, prebuilt c2-na-c2
 1049    1047    1138         1       117.200      5.347152E+02     ; C-N-C, prebuilt c2-na-c3
 1112    1047    1138         1       117.200      5.347152E+02     ; C-N-C, prebuilt c2-na-c3
 1049    1048    1050         1       124.970      5.322048E+02     ; C-N-C, prebuilt c2-na-ca
 1049    1048    1111         1       110.370      5.631664E+02     ; C-N-C, prebuilt c2-na-c2
 1050    1048    1111         1       124.970      5.322048E+02     ; C-N-C, prebuilt c2-na-ca
 1047    1049    1048         1       109.330      6.117008E+02     ; N-C-N, prebuilt na-c2-na
 1047    1049    1086         1       125.324      5.000000E+02     ; N-C-C (na-c2-ca) missing and simply guessed
 1048    1049    1086         1       128.375      5.000000E+02     ; N-C-C (na-c2-ca) missing and simply guessed
 1048    1050    1051         1       118.340      5.782288E+02     ; N-C-C, prebuilt ca-ca-na
 1048    1050    1055         1       118.340      5.782288E+02     ; N-C-C, prebuilt ca-ca-na
 1051    1050    1055         1       120.020      5.573088E+02     ; C-C-C, prebuilt ca-ca-ca
 1050    1051    1052         1       120.020      5.573088E+02     ; C-C-C, prebuilt ca-ca-ca
 1050    1051    1117         1       119.880      4.033376E+02     ; C-C-H, prebuilt ca-ca-ha
 1052    1051    1117         1       119.880      4.033376E+02     ; C-C-H, prebuilt ca-ca-ha
 1051    1052    1053         1       120.020      5.573088E+02     ; C-C-C, prebuilt ca-ca-ca
 1051    1052    1118         1       119.880      4.033376E+02     ; C-C-H, prebuilt ca-ca-ha
 1053    1052    1118         1       119.880      4.033376E+02     ; C-C-H, prebuilt ca-ca-ha
 1052    1053    1054         1       120.020      5.573088E+02     ; C-C-C, prebuilt ca-ca-ca
 1052    1053    1056         1       120.190      5.681872E+02     ; C-C-N, prebuilt ca-ca-n
 1054    1053    1056         1       120.190      5.681872E+02     ; C-C-N, prebuilt ca-ca-n
 1053    1054    1055         1       120.020      5.573088E+02     ; C-C-C, prebuilt ca-ca-ca
 1053    1054    1120         1       119.880      4.033376E+02     ; C-C-H, prebuilt ca-ca-ha
 1055    1054    1120         1       119.880      4.033376E+02     ; C-C-H, prebuilt ca-ca-ha
 1050    1055    1054         1       120.020      5.573088E+02     ; C-C-C, prebuilt ca-ca-ca
 1050    1055    1119         1       119.880      4.033376E+02     ; C-C-H, prebuilt ca-ca-ha
 1054    1055    1119         1       119.880      4.033376E+02     ; C-C-H, prebuilt ca-ca-ha
 1053    1056    1057         1       123.710      5.338784E+02     ; C-N-C, prebuilt c-n-ca
 1053    1056    1060         1       123.710      5.338784E+02     ; C-N-C, prebuilt c-n-ca
 1057    1056    1060         1       127.080      5.330416E+02     ; C-N-C, prebuilt c-n-c
 1056    1057    1058         1       115.250      5.665136E+02     ; N-C-C, prebuilt ca-c-n
 1056    1057    1081         1       123.050      6.209056E+02     ; N-C-O, prebuilt n-c-o
 1058    1057    1081         1       122.600      5.748816E+02     ; C-C-O, prebuilt ca-c-o
 1057    1058    1059         1       120.330      5.380624E+02     ; C-C-C, prebuilt c-ca-ca
 1057    1058    1062         1       120.330      5.380624E+02     ; C-C-C, prebuilt c-ca-ca
 1059    1058    1062         1       120.020      5.573088E+02     ; C-C-C, prebuilt ca-ca-ca
 1058    1059    1060         1       120.330      5.380624E+02     ; C-C-C, prebuilt c-ca-ca
 1058    1059    1065         1       120.020      5.573088E+02     ; C-C-C, prebuilt ca-ca-ca
 1060    1059    1065         1       120.330      5.380624E+02     ; C-C-C, prebuilt c-ca-ca
 1056    1060    1059         1       115.250      5.665136E+02     ; N-C-C, prebuilt ca-c-n
 1056    1060    1061         1       123.050      6.209056E+02     ; N-C-O, prebuilt n-c-o
 1059    1060    1061         1       122.600      5.748816E+02     ; C-C-O, prebuilt ca-c-o
 1058    1062    1063         1       120.020      5.573088E+02     ; C-C-C, prebuilt ca-ca-ca
 1058    1062    1121         1       119.880      4.033376E+02     ; C-C-H, prebuilt ca-ca-ha
 1063    1062    1121         1       119.880      4.033376E+02     ; C-C-H, prebuilt ca-ca-ha
 1062    1063    1064         1       120.020      5.573088E+02     ; C-C-C, prebuilt ca-ca-ca
 1062    1063    1072         1       120.770      5.313680E+02     ; C-C-C, prebuilt c3-ca-ca
 1064    1063    1072         1       120.770      5.313680E+02     ; C-C-C, prebuilt c3-ca-ca
 1063    1064    1065         1       120.020      5.573088E+02     ; C-C-C, prebuilt ca-ca-ca
 1063    1064    1122         1       119.880      4.033376E+02     ; C-C-H, prebuilt ca-ca-ha
 1065    1064    1122         1       119.880      4.033376E+02     ; C-C-H, prebuilt ca-ca-ha
 1059    1065    1064         1       120.020      5.573088E+02     ; C-C-C, prebuilt ca-ca-ca
 1059    1065    1123         1       119.880      4.033376E+02     ; C-C-H, prebuilt ca-ca-ha
 1064    1065    1123         1       119.880      4.033376E+02     ; C-C-H, prebuilt ca-ca-ha
 1067    1066    1069         1       120.020      5.573088E+02     ; C-C-C, prebuilt ca-ca-ca
 1067    1066    1072         1       120.770      5.313680E+02     ; C-C-C, prebuilt c3-ca-ca
 1069    1066    1072         1       120.770      5.313680E+02     ; C-C-C, prebuilt c3-ca-ca
 1066    1067    1068         1       120.020      5.573088E+02     ; C-C-C, prebuilt ca-ca-ca
 1066    1067    1125         1       119.880      4.033376E+02     ; C-C-H, prebuilt ca-ca-ha
 1068    1067    1125         1       119.880      4.033376E+02     ; C-C-H, prebuilt ca-ca-ha
 1067    1068    1070         1       120.020      5.573088E+02     ; C-C-C, prebuilt ca-ca-ca
 1067    1068    1082         1       120.330      5.380624E+02     ; C-C-C, prebuilt c-ca-ca
 1070    1068    1082         1       120.330      5.380624E+02     ; C-C-C, prebuilt c-ca-ca
 1066    1069    1071         1       120.020      5.573088E+02     ; C-C-C, prebuilt ca-ca-ca
 1066    1069    1124         1       119.880      4.033376E+02     ; C-C-H, prebuilt ca-ca-ha
 1071    1069    1124         1       119.880      4.033376E+02     ; C-C-H, prebuilt ca-ca-ha
 1068    1070    1071         1       120.020      5.573088E+02     ; C-C-C, prebuilt ca-ca-ca
 1068    1070    1084         1       120.330      5.380624E+02     ; C-C-C, prebuilt c-ca-ca
 1071    1070    1084         1       120.330      5.380624E+02     ; C-C-C, prebuilt c-ca-ca
 1069    1071    1070         1       120.020      5.573088E+02     ; C-C-C, prebuilt ca-ca-ca
 1069    1071    1126         1       119.880      4.033376E+02     ; C-C-H, prebuilt ca-ca-ha
 1070    1071    1126         1       119.880      4.033376E+02     ; C-C-H, prebuilt ca-ca-ha
 1063    1072    1066         1       112.240      5.322048E+02     ; C-C-C, prebuilt ca-c3-ca
 1063    1072    1073         1       112.070      5.280208E+02     ; C-C-C, prebuilt c3-c3-ca
 1063    1072    1077         1       112.070      5.280208E+02     ; C-C-C, prebuilt c3-c3-ca
 1066    1072    1073         1       112.070      5.280208E+02     ; C-C-C, prebuilt c3-c3-ca
 1066    1072    1077         1       112.070      5.280208E+02     ; C-C-C, prebuilt c3-c3-ca
 1073    1072    1077         1       111.510      5.263472E+02     ; C-C-C, prebuilt c3-c3-c3
 1072    1073    1074         1       109.240      5.531248E+02     ; C-C-F, prebuilt c3-c3-f
 1072    1073    1075         1       109.240      5.531248E+02     ; C-C-F, prebuilt c3-c3-f
 1072    1073    1076         1       109.240      5.531248E+02     ; C-C-F, prebuilt c3-c3-f
 1074    1073    1075         1       107.360      5.932912E+02     ; F-C-F, prebuilt f-c3-f
 1074    1073    1076         1       107.360      5.932912E+02     ; F-C-F, prebuilt f-c3-f
 1075    1073    1076         1       107.360      5.932912E+02     ; F-C-F, prebuilt f-c3-f
 1072    1077    1078         1       109.240      5.531248E+02     ; C-C-F, prebuilt c3-c3-f
 1072    1077    1079         1       109.240      5.531248E+02     ; C-C-F, prebuilt c3-c3-f
 1072    1077    1080         1       109.240      5.531248E+02     ; C-C-F, prebuilt c3-c3-f
 1078    1077    1079         1       107.360      5.932912E+02     ; F-C-F, prebuilt f-c3-f
 1078    1077    1080         1       107.360      5.932912E+02     ; F-C-F, prebuilt f-c3-f
 1079    1077    1080         1       107.360      5.932912E+02     ; F-C-F, prebuilt f-c3-f
 1068    1082    1083         1       115.250      5.665136E+02     ; C-C-N, prebuilt ca-c-n
 1068    1082    1127         1       122.600      5.748816E+02     ; C-C-O, prebuilt ca-c-o
 1083    1082    1127         1       123.050      6.209056E+02     ; N-C-O, prebuilt n-c-o
 1082    1083    1084         1       127.080      5.330416E+02     ; C-N-C, prebuilt c-n-c
 1082    1083    1199         1       123.710      5.338784E+02     ; C-N-C, prebuilt c-n-ca
 1084    1083    1199         1       123.710      5.338784E+02     ; C-N-C, prebuilt c-n-ca
 1070    1084    1083         1       115.250      5.665136E+02     ; C-C-N, prebuilt ca-c-n
 1070    1084    1085         1       122.600      5.748816E+02     ; C-C-O, prebuilt ca-c-o
 1083    1084    1085         1       123.050      6.209056E+02     ; N-C-O, prebuilt n-c-o
 1049    1086    1087         1       120.600      5.589824E+02     ; C-C-C, prebuilt c2-ca-ca
 1049    1086    1088         1       120.600      5.589824E+02     ; C-C-C, prebuilt c2-ca-ca
 1087    1086    1088         1       120.020      5.573088E+02     ; C-C-C, prebuilt ca-ca-ca
 1086    1087    1089         1       120.020      5.573088E+02     ; C-C-C, prebuilt ca-ca-ca
 1086    1087    1128         1       119.880      4.033376E+02     ; C-C-H, prebuilt ca-ca-ha
 1089    1087    1128         1       119.880      4.033376E+02     ; C-C-H, prebuilt ca-ca-ha
 1086    1088    1090         1       120.020      5.573088E+02     ; C-C-C, prebuilt ca-ca-ca
 1086    1088    1130         1       119.880      4.033376E+02     ; C-C-H, prebuilt ca-ca-ha
 1090    1088    1130         1       119.880      4.033376E+02     ; C-C-H, prebuilt ca-ca-ha
 1087    1089    1091         1       120.020      5.573088E+02     ; C-C-C, prebuilt ca-ca-ca
 1087    1089    1129         1       119.880      4.033376E+02     ; C-C-H, prebuilt ca-ca-ha
 1091    1089    1129         1       119.880      4.033376E+02     ; C-C-H, prebuilt ca-ca-ha
 1088    1090    1091         1       120.020      5.573088E+02     ; C-C-C, prebuilt ca-ca-ca
 1088    1090    1136         1       119.880      4.033376E+02     ; C-C-H, prebuilt ca-ca-ha
 1091    1090    1136         1       119.880      4.033376E+02     ; C-C-H, prebuilt ca-ca-ha
 1089    1091    1090         1       120.020      5.573088E+02     ; C-C-C, prebuilt ca-ca-ca
 1089    1091    1092         1       120.600      5.589824E+02     ; C-C-C, prebuilt c2-ca-ca
 1090    1091    1092         1       120.600      5.589824E+02     ; C-C-C, prebuilt c2-ca-ca
 1091    1092    1093         1       128.419      5.000000E+02     ; C-C-N (ca-c2-na) missing and simply guessed
 1091    1092    1094         1       125.592      5.000000E+02     ; C-C-N (ca-c2-na) missing and simply guessed
 1093    1092    1094         1       109.330      6.117008E+02     ; N-C-N, prebuilt na-c2-na
 1092    1093    1095         1       110.370      5.631664E+02     ; C-N-C, prebuilt c2-na-c2
 1092    1093    1101         1       124.970      5.322048E+02     ; C-N-C, prebuilt c2-na-ca
 1095    1093    1101         1       124.970      5.322048E+02     ; C-N-C, prebuilt c2-na-ca
 1092    1094    1096         1       110.370      5.631664E+02     ; C-N-C, prebuilt c2-na-c2
 1092    1094    1097         1       117.200      5.347152E+02     ; C-N-C, prebuilt c2-na-c3
 1096    1094    1097         1       117.200      5.347152E+02     ; C-N-C, prebuilt c2-na-c3
 1093    1095    1096         1       121.940      5.782288E+02     ; N-C-C, prebuilt c2-c2-na
 1093    1095    1135         1       112.970      4.250944E+02     ; N-C-H, prebuilt h4-c2-na
 1096    1095    1135         1       122.670      4.133792E+02     ; C-C-H, prebuilt c2-c2-h4
 1094    1096    1095         1       121.940      5.782288E+02     ; N-C-C, prebuilt c2-c2-na
 1094    1096    1107         1       117.200      5.539616E+02     ; N-C-C, prebuilt c3-c2-na
 1095    1096    1107         1       123.630      5.363888E+02     ; C-C-C, prebuilt c2-c2-c3
 1094    1097    1098         1       108.780      4.167264E+02     ; N-C-H, prebuilt h1-c3-na
 1094    1097    1099         1       108.780      4.167264E+02     ; N-C-H, prebuilt h1-c3-na
 1094    1097    1100         1       108.780      4.167264E+02     ; N-C-H, prebuilt h1-c3-na
 1098    1097    1099         1       108.460      3.280256E+02     ; H-C-H, prebuilt h1-c3-h1
 1098    1097    1100         1       108.460      3.280256E+02     ; H-C-H, prebuilt h1-c3-h1
 1099    1097    1100         1       108.460      3.280256E+02     ; H-C-H, prebuilt h1-c3-h1
 1093    1101    1102         1       118.340      5.782288E+02     ; N-C-C, prebuilt ca-ca-na
 1093    1101    1106         1       118.340      5.782288E+02     ; N-C-C, prebuilt ca-ca-na
 1102    1101    1106         1       120.020      5.573088E+02     ; C-C-C, prebuilt ca-ca-ca
 1101    1102    1103         1       120.020      5.573088E+02     ; C-C-C, prebuilt ca-ca-ca
 1101    1102    1132         1       119.880      4.033376E+02     ; C-C-H, prebuilt ca-ca-ha
 1103    1102    1132         1       119.880      4.033376E+02     ; C-C-H, prebuilt ca-ca-ha
 1102    1103    1104         1       120.020      5.573088E+02     ; C-C-C, prebuilt ca-ca-ca
 1102    1103    1131         1       119.880      4.033376E+02     ; C-C-H, prebuilt ca-ca-ha
 1104    1103    1131         1       119.880      4.033376E+02     ; C-C-H, prebuilt ca-ca-ha
  988    1104    1103         1       120.190      5.681872E+02     ; N-C-C, prebuilt ca-ca-n
  988    1104    1105         1       120.190      5.681872E+02     ; N-C-C, prebuilt ca-ca-n
 1103    1104    1105         1       120.020      5.573088E+02     ; C-C-C, prebuilt ca-ca-ca
 1104    1105    1106         1       120.020      5.573088E+02     ; C-C-C, prebuilt ca-ca-ca
 1104    1105    1133         1       119.880      4.033376E+02     ; C-C-H, prebuilt ca-ca-ha
 1106    1105    1133         1       119.880      4.033376E+02     ; C-C-H, prebuilt ca-ca-ha
 1101    1106    1105         1       120.020      5.573088E+02     ; C-C-C, prebuilt ca-ca-ca
 1101    1106    1134         1       119.880      4.033376E+02     ; C-C-H, prebuilt ca-ca-ha
 1105    1106    1134         1       119.880      4.033376E+02     ; C-C-H, prebuilt ca-ca-ha
 1096    1107    1108         1       110.760      5.556352E+02     ; C-C-F, prebuilt c2-c3-f
 1096    1107    1109         1       110.760      5.556352E+02     ; C-C-F, prebuilt c2-c3-f
 1096    1107    1110         1       110.760      5.556352E+02     ; C-C-F, prebuilt c2-c3-f
 1108    1107    1109         1       107.360      5.932912E+02     ; F-C-F, prebuilt f-c3-f
 1108    1107    1110         1       107.360      5.932912E+02     ; F-C-F, prebuilt f-c3-f
 1109    1107    1110         1       107.360      5.932912E+02     ; F-C-F, prebuilt f-c3-f
 1048    1111    1112         1       121.940      5.782288E+02     ; N-C-C, prebuilt c2-c2-na
 1048    1111    1116         1       112.970      4.250944E+02     ; N-C-H, prebuilt h4-c2-na
 1112    1111    1116         1       122.670      4.133792E+02     ; C-C-H, prebuilt c2-c2-h4
 1047    1112    1111         1       121.940      5.782288E+02     ; N-C-C, prebuilt c2-c2-na
 1047    1112    1113         1       117.200      5.539616E+02     ; N-C-C, prebuilt c3-c2-na
 1111    1112    1113         1       123.630      5.363888E+02     ; C-C-C, prebuilt c2-c2-c3
 1112    1113    1114         1       110.760      5.556352E+02     ; C-C-F, prebuilt c2-c3-f
 1112    1113    1115         1       110.760      5.556352E+02     ; C-C-F, prebuilt c2-c3-f
 1112    1113    1137         1       110.760      5.556352E+02     ; C-C-F, prebuilt c2-c3-f
 1114    1113    1115         1       107.360      5.932912E+02     ; F-C-F, prebuilt f-c3-f
 1114    1113    1137         1       107.360      5.932912E+02     ; F-C-F, prebuilt f-c3-f
 1115    1113    1137         1       107.360      5.932912E+02     ; F-C-F, prebuilt f-c3-f
 1047    1138    1139         1       108.780      4.167264E+02     ; N-C-H, prebuilt h1-c3-na
 1047    1138    1140         1       108.780      4.167264E+02     ; N-C-H, prebuilt h1-c3-na
 1047    1138    1141         1       108.780      4.167264E+02     ; N-C-H, prebuilt h1-c3-na
 1139    1138    1140         1       108.460      3.280256E+02     ; H-C-H, prebuilt h1-c3-h1
 1139    1138    1141         1       108.460      3.280256E+02     ; H-C-H, prebuilt h1-c3-h1
 1140    1138    1141         1       108.460      3.280256E+02     ; H-C-H, prebuilt h1-c3-h1
 1144    1142    1207         1       110.370      5.631664E+02     ; C-N-C, prebuilt c2-na-c2
 1144    1142    1233         1       117.200      5.347152E+02     ; C-N-C, prebuilt c2-na-c3
 1207    1142    1233         1       117.200      5.347152E+02     ; C-N-C, prebuilt c2-na-c3
 1144    1143    1145         1       124.970      5.322048E+02     ; C-N-C, prebuilt c2-na-ca
 1144    1143    1206         1       110.370      5.631664E+02     ; C-N-C, prebuilt c2-na-c2
 1145    1143    1206         1       124.970      5.322048E+02     ; C-N-C, prebuilt c2-na-ca
 1142    1144    1143         1       109.330      6.117008E+02     ; N-C-N, prebuilt na-c2-na
 1142    1144    1181         1       125.630      5.000000E+02     ; N-C-C (na-c2-ca) missing and simply guessed
 1143    1144    1181         1       127.939      5.000000E+02     ; N-C-C (na-c2-ca) missing and simply guessed
 1143    1145    1146         1       118.340      5.782288E+02     ; N-C-C, prebuilt ca-ca-na
 1143    1145    1150         1       118.340      5.782288E+02     ; N-C-C, prebuilt ca-ca-na
 1146    1145    1150         1       120.020      5.573088E+02     ; C-C-C, prebuilt ca-ca-ca
 1145    1146    1147         1       120.020      5.573088E+02     ; C-C-C, prebuilt ca-ca-ca
 1145    1146    1212         1       119.880      4.033376E+02     ; C-C-H, prebuilt ca-ca-ha
 1147    1146    1212         1       119.880      4.033376E+02     ; C-C-H, prebuilt ca-ca-ha
 1146    1147    1148         1       120.020      5.573088E+02     ; C-C-C, prebuilt ca-ca-ca
 1146    1147    1213         1       119.880      4.033376E+02     ; C-C-H, prebuilt ca-ca-ha
 1148    1147    1213         1       119.880      4.033376E+02     ; C-C-H, prebuilt ca-ca-ha
 1147    1148    1149         1       120.020      5.573088E+02     ; C-C-C, prebuilt ca-ca-ca
 1147    1148    1151         1       120.190      5.681872E+02     ; C-C-N, prebuilt ca-ca-n
 1149    1148    1151         1       120.190      5.681872E+02     ; C-C-N, prebuilt ca-ca-n
 1148    1149    1150         1       120.020      5.573088E+02     ; C-C-C, prebuilt ca-ca-ca
 1148    1149    1215         1       119.880      4.033376E+02     ; C-C-H, prebuilt ca-ca-ha
 1150    1149    1215         1       119.880      4.033376E+02     ; C-C-H, prebuilt ca-ca-ha
 1145    1150    1149         1       120.020      5.573088E+02     ; C-C-C, prebuilt ca-ca-ca
 1145    1150    1214         1       119.880      4.033376E+02     ; C-C-H, prebuilt ca-ca-ha
 1149    1150    1214         1       119.880      4.033376E+02     ; C-C-H, prebuilt ca-ca-ha
 1148    1151    1152         1       123.710      5.338784E+02     ; C-N-C, prebuilt c-n-ca
 1148    1151    1155         1       123.710      5.338784E+02     ; C-N-C, prebuilt c-n-ca
 1152    1151    1155         1       127.080      5.330416E+02     ; C-N-C, prebuilt c-n-c
 1151    1152    1153         1       115.250      5.665136E+02     ; N-C-C, prebuilt ca-c-n
 1151    1152    1176         1       123.050      6.209056E+02     ; N-C-O, prebuilt n-c-o
 1153    1152    1176         1       122.600      5.748816E+02     ; C-C-O, prebuilt ca-c-o
 1152    1153    1154         1       120.330      5.380624E+02     ; C-C-C, prebuilt c-ca-ca
 1152    1153    1157         1       120.330      5.380624E+02     ; C-C-C, prebuilt c-ca-ca
 1154    1153    1157         1       120.020      5.573088E+02     ; C-C-C, prebuilt ca-ca-ca
 1153    1154    1155         1       120.330      5.380624E+02     ; C-C-C, prebuilt c-ca-ca
 1153    1154    1160         1       120.020      5.573088E+02     ; C-C-C, prebuilt ca-ca-ca
 1155    1154    1160         1       120.330      5.380624E+02     ; C-C-C, prebuilt c-ca-ca
 1151    1155    1154         1       115.250      5.665136E+02     ; N-C-C, prebuilt ca-c-n
 1151    1155    1156         1       123.050      6.209056E+02     ; N-C-O, prebuilt n-c-o
 1154    1155    1156         1       122.600      5.748816E+02     ; C-C-O, prebuilt ca-c-o
 1153    1157    1158         1       120.020      5.573088E+02     ; C-C-C, prebuilt ca-ca-ca
 1153    1157    1216         1       119.880      4.033376E+02     ; C-C-H, prebuilt ca-ca-ha
 1158    1157    1216         1       119.880      4.033376E+02     ; C-C-H, prebuilt ca-ca-ha
 1157    1158    1159         1       120.020      5.573088E+02     ; C-C-C, prebuilt ca-ca-ca
 1157    1158    1167         1       120.770      5.313680E+02     ; C-C-C, prebuilt c3-ca-ca
 1159    1158    1167         1       120.770      5.313680E+02     ; C-C-C, prebuilt c3-ca-ca
 1158    1159    1160         1       120.020      5.573088E+02     ; C-C-C, prebuilt ca-ca-ca
 1158    1159    1217         1       119.880      4.033376E+02     ; C-C-H, prebuilt ca-ca-ha
 1160    1159    1217         1       119.880      4.033376E+02     ; C-C-H, prebuilt ca-ca-ha
 1154    1160    1159         1       120.020      5.573088E+02     ; C-C-C, prebuilt ca-ca-ca
 1154    1160    1218         1       119.880      4.033376E+02     ; C-C-H, prebuilt ca-ca-ha
 1159    1160    1218         1       119.880      4.033376E+02     ; C-C-H, prebuilt ca-ca-ha
 1162    1161    1164         1       120.020      5.573088E+02     ; C-C-C, prebuilt ca-ca-ca
 1162    1161    1167         1       120.770      5.313680E+02     ; C-C-C, prebuilt c3-ca-ca
 1164    1161    1167         1       120.770      5.313680E+02     ; C-C-C, prebuilt c3-ca-ca
 1161    1162    1163         1       120.020      5.573088E+02     ; C-C-C, prebuilt ca-ca-ca
 1161    1162    1220         1       119.880      4.033376E+02     ; C-C-H, prebuilt ca-ca-ha
 1163    1162    1220         1       119.880      4.033376E+02     ; C-C-H, prebuilt ca-ca-ha
 1162    1163    1165         1       120.020      5.573088E+02     ; C-C-C, prebuilt ca-ca-ca
 1162    1163    1177         1       120.330      5.380624E+02     ; C-C-C, prebuilt c-ca-ca
 1165    1163    1177         1       120.330      5.380624E+02     ; C-C-C, prebuilt c-ca-ca
 1161    1164    1166         1       120.020      5.573088E+02     ; C-C-C, prebuilt ca-ca-ca
 1161    1164    1219         1       119.880      4.033376E+02     ; C-C-H, prebuilt ca-ca-ha
 1166    1164    1219         1       119.880      4.033376E+02     ; C-C-H, prebuilt ca-ca-ha
 1163    1165    1166         1       120.020      5.573088E+02     ; C-C-C, prebuilt ca-ca-ca
 1163    1165    1179         1       120.330      5.380624E+02     ; C-C-C, prebuilt c-ca-ca
 1166    1165    1179         1       120.330      5.380624E+02     ; C-C-C, prebuilt c-ca-ca
 1164    1166    1165         1       120.020      5.573088E+02     ; C-C-C, prebuilt ca-ca-ca
 1164    1166    1221         1       119.880      4.033376E+02     ; C-C-H, prebuilt ca-ca-ha
 1165    1166    1221         1       119.880      4.033376E+02     ; C-C-H, prebuilt ca-ca-ha
 1158    1167    1161         1       112.240      5.322048E+02     ; C-C-C, prebuilt ca-c3-ca
 1158    1167    1168         1       112.070      5.280208E+02     ; C-C-C, prebuilt c3-c3-ca
 1158    1167    1172         1       112.070      5.280208E+02     ; C-C-C, prebuilt c3-c3-ca
 1161    1167    1168         1       112.070      5.280208E+02     ; C-C-C, prebuilt c3-c3-ca
 1161    1167    1172         1       112.070      5.280208E+02     ; C-C-C, prebuilt c3-c3-ca
 1168    1167    1172         1       111.510      5.263472E+02     ; C-C-C, prebuilt c3-c3-c3
 1167    1168    1169         1       109.240      5.531248E+02     ; C-C-F, prebuilt c3-c3-f
 1167    1168    1170         1       109.240      5.531248E+02     ; C-C-F, prebuilt c3-c3-f
 1167    1168    1171         1       109.240      5.531248E+02     ; C-C-F, prebuilt c3-c3-f
 1169    1168    1170         1       107.360      5.932912E+02     ; F-C-F, prebuilt f-c3-f
 1169    1168    1171         1       107.360      5.932912E+02     ; F-C-F, prebuilt f-c3-f
 1170    1168    1171         1       107.360      5.932912E+02     ; F-C-F, prebuilt f-c3-f
 1167    1172    1173         1       109.240      5.531248E+02     ; C-C-F, prebuilt c3-c3-f
 1167    1172    1174         1       109.240      5.531248E+02     ; C-C-F, prebuilt c3-c3-f
 1167    1172    1175         1       109.240      5.531248E+02     ; C-C-F, prebuilt c3-c3-f
 1173    1172    1174         1       107.360      5.932912E+02     ; F-C-F, prebuilt f-c3-f
 1173    1172    1175         1       107.360      5.932912E+02     ; F-C-F, prebuilt f-c3-f
 1174    1172    1175         1       107.360      5.932912E+02     ; F-C-F, prebuilt f-c3-f
 1163    1177    1178         1       115.250      5.665136E+02     ; C-C-N, prebuilt ca-c-n
 1163    1177    1222         1       122.600      5.748816E+02     ; C-C-O, prebuilt ca-c-o
 1178    1177    1222         1       123.050      6.209056E+02     ; N-C-O, prebuilt n-c-o
 1177    1178    1179         1       127.080      5.330416E+02     ; C-N-C, prebuilt c-n-c
 1177    1178    1294         1       123.710      5.338784E+02     ; C-N-C, prebuilt c-n-ca
 1179    1178    1294         1       123.710      5.338784E+02     ; C-N-C, prebuilt c-n-ca
 1165    1179    1178         1       115.250      5.665136E+02     ; C-C-N, prebuilt ca-c-n
 1165    1179    1180         1       122.600      5.748816E+02     ; C-C-O, prebuilt ca-c-o
 1178    1179    1180         1       123.050      6.209056E+02     ; N-C-O, prebuilt n-c-o
 1144    1181    1182         1       120.600      5.589824E+02     ; C-C-C, prebuilt c2-ca-ca
 1144    1181    1183         1       120.600      5.589824E+02     ; C-C-C, prebuilt c2-ca-ca
 1182    1181    1183         1       120.020      5.573088E+02     ; C-C-C, prebuilt ca-ca-ca
 1181    1182    1184         1       120.020      5.573088E+02     ; C-C-C, prebuilt ca-ca-ca
 1181    1182    1223         1       119.880      4.033376E+02     ; C-C-H, prebuilt ca-ca-ha
 1184    1182    1223         1       119.880      4.033376E+02     ; C-C-H, prebuilt ca-ca-ha
 1181    1183    1185         1       120.020      5.573088E+02     ; C-C-C, prebuilt ca-ca-ca
 1181    1183    1225         1       119.880      4.033376E+02     ; C-C-H, prebuilt ca-ca-ha
 1185    1183    1225         1       119.880      4.033376E+02     ; C-C-H, prebuilt ca-ca-ha
 1182    1184    1186         1       120.020      5.573088E+02     ; C-C-C, prebuilt ca-ca-ca
 1182    1184    1224         1       119.880      4.033376E+02     ; C-C-H, prebuilt ca-ca-ha
 1186    1184    1224         1       119.880      4.033376E+02     ; C-C-H, prebuilt ca-ca-ha
 1183    1185    1186         1       120.020      5.573088E+02     ; C-C-C, prebuilt ca-ca-ca
 1183    1185    1231         1       119.880      4.033376E+02     ; C-C-H, prebuilt ca-ca-ha
 1186    1185    1231         1       119.880      4.033376E+02     ; C-C-H, prebuilt ca-ca-ha
 1184    1186    1185         1       120.020      5.573088E+02     ; C-C-C, prebuilt ca-ca-ca
 1184    1186    1187         1       120.600      5.589824E+02     ; C-C-C, prebuilt c2-ca-ca
 1185    1186    1187         1       120.600      5.589824E+02     ; C-C-C, prebuilt c2-ca-ca
 1186    1187    1188         1       126.695      5.000000E+02     ; C-C-N (ca-c2-na) missing and simply guessed
 1186    1187    1189         1       127.184      5.000000E+02     ; C-C-N (ca-c2-na) missing and simply guessed
 1188    1187    1189         1       109.330      6.117008E+02     ; N-C-N, prebuilt na-c2-na
 1187    1188    1190         1       110.370      5.631664E+02     ; C-N-C, prebuilt c2-na-c2
 1187    1188    1196         1       124.970      5.322048E+02     ; C-N-C, prebuilt c2-na-ca
 1190    1188    1196         1       124.970      5.322048E+02     ; C-N-C, prebuilt c2-na-ca
 1187    1189    1191         1       110.370      5.631664E+02     ; C-N-C, prebuilt c2-na-c2
 1187    1189    1192         1       117.200      5.347152E+02     ; C-N-C, prebuilt c2-na-c3
 1191    1189    1192         1       117.200      5.347152E+02     ; C-N-C, prebuilt c2-na-c3
 1188    1190    1191         1       121.940      5.782288E+02     ; N-C-C, prebuilt c2-c2-na
 1188    1190    1230         1       112.970      4.250944E+02     ; N-C-H, prebuilt h4-c2-na
 1191    1190    1230         1       122.670      4.133792E+02     ; C-C-H, prebuilt c2-c2-h4
 1189    1191    1190         1       121.940      5.782288E+02     ; N-C-C, prebuilt c2-c2-na
 1189    1191    1202         1       117.200      5.539616E+02     ; N-C-C, prebuilt c3-c2-na
 1190    1191    1202         1       123.630      5.363888E+02     ; C-C-C, prebuilt c2-c2-c3
 1189    1192    1193         1       108.780      4.167264E+02     ; N-C-H, prebuilt h1-c3-na
 1189    1192    1194         1       108.780      4.167264E+02     ; N-C-H, prebuilt h1-c3-na
 1189    1192    1195         1       108.780      4.167264E+02     ; N-C-H, prebuilt h1-c3-na
 1193    1192    1194         1       108.460      3.280256E+02     ; H-C-H, prebuilt h1-c3-h1
 1193    1192    1195         1       108.460      3.280256E+02     ; H-C-H, prebuilt h1-c3-h1
 1194    1192    1195         1       108.460      3.280256E+02     ; H-C-H, prebuilt h1-c3-h1
 1188    1196    1197         1       118.340      5.782288E+02     ; N-C-C, prebuilt ca-ca-na
 1188    1196    1201         1       118.340      5.782288E+02     ; N-C-C, prebuilt ca-ca-na
 1197    1196    1201         1       120.020      5.573088E+02     ; C-C-C, prebuilt ca-ca-ca
 1196    1197    1198         1       120.020      5.573088E+02     ; C-C-C, prebuilt ca-ca-ca
 1196    1197    1227         1       119.880      4.033376E+02     ; C-C-H, prebuilt ca-ca-ha
 1198    1197    1227         1       119.880      4.033376E+02     ; C-C-H, prebuilt ca-ca-ha
 1197    1198    1199         1       120.020      5.573088E+02     ; C-C-C, prebuilt ca-ca-ca
 1197    1198    1226         1       119.880      4.033376E+02     ; C-C-H, prebuilt ca-ca-ha
 1199    1198    1226         1       119.880      4.033376E+02     ; C-C-H, prebuilt ca-ca-ha
 1083    1199    1198         1       120.190      5.681872E+02     ; N-C-C, prebuilt ca-ca-n
 1083    1199    1200         1       120.190      5.681872E+02     ; N-C-C, prebuilt ca-ca-n
 1198    1199    1200         1       120.020      5.573088E+02     ; C-C-C, prebuilt ca-ca-ca
 1199    1200    1201         1       120.020      5.573088E+02     ; C-C-C, prebuilt ca-ca-ca
 1199    1200    1228         1       119.880      4.033376E+02     ; C-C-H, prebuilt ca-ca-ha
 1201    1200    1228         1       119.880      4.033376E+02     ; C-C-H, prebuilt ca-ca-ha
 1196    1201    1200         1       120.020      5.573088E+02     ; C-C-C, prebuilt ca-ca-ca
 1196    1201    1229         1       119.880      4.033376E+02     ; C-C-H, prebuilt ca-ca-ha
 1200    1201    1229         1       119.880      4.033376E+02     ; C-C-H, prebuilt ca-ca-ha
 1191    1202    1203         1       110.760      5.556352E+02     ; C-C-F, prebuilt c2-c3-f
 1191    1202    1204         1       110.760      5.556352E+02     ; C-C-F, prebuilt c2-c3-f
 1191    1202    1205         1       110.760      5.556352E+02     ; C-C-F, prebuilt c2-c3-f
 1203    1202    1204         1       107.360      5.932912E+02     ; F-C-F, prebuilt f-c3-f
 1203    1202    1205         1       107.360      5.932912E+02     ; F-C-F, prebuilt f-c3-f
 1204    1202    1205         1       107.360      5.932912E+02     ; F-C-F, prebuilt f-c3-f
 1143    1206    1207         1       121.940      5.782288E+02     ; N-C-C, prebuilt c2-c2-na
 1143    1206    1211         1       112.970      4.250944E+02     ; N-C-H, prebuilt h4-c2-na
 1207    1206    1211         1       122.670      4.133792E+02     ; C-C-H, prebuilt c2-c2-h4
 1142    1207    1206         1       121.940      5.782288E+02     ; N-C-C, prebuilt c2-c2-na
 1142    1207    1208         1       117.200      5.539616E+02     ; N-C-C, prebuilt c3-c2-na
 1206    1207    1208         1       123.630      5.363888E+02     ; C-C-C, prebuilt c2-c2-c3
 1207    1208    1209         1       110.760      5.556352E+02     ; C-C-F, prebuilt c2-c3-f
 1207    1208    1210         1       110.760      5.556352E+02     ; C-C-F, prebuilt c2-c3-f
 1207    1208    1232         1       110.760      5.556352E+02     ; C-C-F, prebuilt c2-c3-f
 1209    1208    1210         1       107.360      5.932912E+02     ; F-C-F, prebuilt f-c3-f
 1209    1208    1232         1       107.360      5.932912E+02     ; F-C-F, prebuilt f-c3-f
 1210    1208    1232         1       107.360      5.932912E+02     ; F-C-F, prebuilt f-c3-f
 1142    1233    1234         1       108.780      4.167264E+02     ; N-C-H, prebuilt h1-c3-na
 1142    1233    1235         1       108.780      4.167264E+02     ; N-C-H, prebuilt h1-c3-na
 1142    1233    1236         1       108.780      4.167264E+02     ; N-C-H, prebuilt h1-c3-na
 1234    1233    1235         1       108.460      3.280256E+02     ; H-C-H, prebuilt h1-c3-h1
 1234    1233    1236         1       108.460      3.280256E+02     ; H-C-H, prebuilt h1-c3-h1
 1235    1233    1236         1       108.460      3.280256E+02     ; H-C-H, prebuilt h1-c3-h1
 1239    1237    1302         1       110.370      5.631664E+02     ; C-N-C, prebuilt c2-na-c2
 1239    1237    1328         1       117.200      5.347152E+02     ; C-N-C, prebuilt c2-na-c3
 1302    1237    1328         1       117.200      5.347152E+02     ; C-N-C, prebuilt c2-na-c3
 1239    1238    1240         1       124.970      5.322048E+02     ; C-N-C, prebuilt c2-na-ca
 1239    1238    1301         1       110.370      5.631664E+02     ; C-N-C, prebuilt c2-na-c2
 1240    1238    1301         1       124.970      5.322048E+02     ; C-N-C, prebuilt c2-na-ca
 1237    1239    1238         1       109.330      6.117008E+02     ; N-C-N, prebuilt na-c2-na
 1237    1239    1276         1       125.028      5.000000E+02     ; N-C-C (na-c2-ca) missing and simply guessed
 1238    1239    1276         1       128.562      5.000000E+02     ; N-C-C (na-c2-ca) missing and simply guessed
 1238    1240    1241         1       118.340      5.782288E+02     ; N-C-C, prebuilt ca-ca-na
 1238    1240    1245         1       118.340      5.782288E+02     ; N-C-C, prebuilt ca-ca-na
 1241    1240    1245         1       120.020      5.573088E+02     ; C-C-C, prebuilt ca-ca-ca
 1240    1241    1242         1       120.020      5.573088E+02     ; C-C-C, prebuilt ca-ca-ca
 1240    1241    1307         1       119.880      4.033376E+02     ; C-C-H, prebuilt ca-ca-ha
 1242    1241    1307         1       119.880      4.033376E+02     ; C-C-H, prebuilt ca-ca-ha
 1241    1242    1243         1       120.020      5.573088E+02     ; C-C-C, prebuilt ca-ca-ca
 1241    1242    1308         1       119.880      4.033376E+02     ; C-C-H, prebuilt ca-ca-ha
 1243    1242    1308         1       119.880      4.033376E+02     ; C-C-H, prebuilt ca-ca-ha
 1242    1243    1244         1       120.020      5.573088E+02     ; C-C-C, prebuilt ca-ca-ca
 1242    1243    1246         1       120.190      5.681872E+02     ; C-C-N, prebuilt ca-ca-n
 1244    1243    1246         1       120.190      5.681872E+02     ; C-C-N, prebuilt ca-ca-n
 1243    1244    1245         1       120.020      5.573088E+02     ; C-C-C, prebuilt ca-ca-ca
 1243    1244    1310         1       119.880      4.033376E+02     ; C-C-H, prebuilt ca-ca-ha
 1245    1244    1310         1       119.880      4.033376E+02     ; C-C-H, prebuilt ca-ca-ha
 1240    1245    1244         1       120.020      5.573088E+02     ; C-C-C, prebuilt ca-ca-ca
 1240    1245    1309         1       119.880      4.033376E+02     ; C-C-H, prebuilt ca-ca-ha
 1244    1245    1309         1       119.880      4.033376E+02     ; C-C-H, prebuilt ca-ca-ha
 1243    1246    1247         1       123.710      5.338784E+02     ; C-N-C, prebuilt c-n-ca
 1243    1246    1250         1       123.710      5.338784E+02     ; C-N-C, prebuilt c-n-ca
 1247    1246    1250         1       127.080      5.330416E+02     ; C-N-C, prebuilt c-n-c
 1246    1247    1248         1       115.250      5.665136E+02     ; N-C-C, prebuilt ca-c-n
 1246    1247    1271         1       123.050      6.209056E+02     ; N-C-O, prebuilt n-c-o
 1248    1247    1271         1       122.600      5.748816E+02     ; C-C-O, prebuilt ca-c-o
 1247    1248    1249         1       120.330      5.380624E+02     ; C-C-C, prebuilt c-ca-ca
 1247    1248    1252         1       120.330      5.380624E+02     ; C-C-C, prebuilt c-ca-ca
 1249    1248    1252         1       120.020      5.573088E+02     ; C-C-C, prebuilt ca-ca-ca
 1248    1249    1250         1       120.330      5.380624E+02     ; C-C-C, prebuilt c-ca-ca
 1248    1249    1255         1       120.020      5.573088E+02     ; C-C-C, prebuilt ca-ca-ca
 1250    1249    1255         1       120.330      5.380624E+02     ; C-C-C, prebuilt c-ca-ca
 1246    1250    1249         1       115.250      5.665136E+02     ; N-C-C, prebuilt ca-c-n
 1246    1250    1251         1       123.050      6.209056E+02     ; N-C-O, prebuilt n-c-o
 1249    1250    1251         1       122.600      5.748816E+02     ; C-C-O, prebuilt ca-c-o
 1248    1252    1253         1       120.020      5.573088E+02     ; C-C-C, prebuilt ca-ca-ca
 1248    1252    1311         1       119.880      4.033376E+02     ; C-C-H, prebuilt ca-ca-ha
 1253    1252    1311         1       119.880      4.033376E+02     ; C-C-H, prebuilt ca-ca-ha
 1252    1253    1254         1       120.020      5.573088E+02     ; C-C-C, prebuilt ca-ca-ca
 1252    1253    1262         1       120.770      5.313680E+02     ; C-C-C, prebuilt c3-ca-ca
 1254    1253    1262         1       120.770      5.313680E+02     ; C-C-C, prebuilt c3-ca-ca
 1253    1254    1255         1       120.020      5.573088E+02     ; C-C-C, prebuilt ca-ca-ca
 1253    1254    1312         1       119.880      4.033376E+02     ; C-C-H, prebuilt ca-ca-ha
 1255    1254    1312         1       119.880      4.033376E+02     ; C-C-H, prebuilt ca-ca-ha
 1249    1255    1254         1       120.020      5.573088E+02     ; C-C-C, prebuilt ca-ca-ca
 1249    1255    1313         1       119.880      4.033376E+02     ; C-C-H, prebuilt ca-ca-ha
 1254    1255    1313         1       119.880      4.033376E+02     ; C-C-H, prebuilt ca-ca-ha
 1257    1256    1259         1       120.020      5.573088E+02     ; C-C-C, prebuilt ca-ca-ca
 1257    1256    1262         1       120.770      5.313680E+02     ; C-C-C, prebuilt c3-ca-ca
 1259    1256    1262         1       120.770      5.313680E+02     ; C-C-C, prebuilt c3-ca-ca
 1256    1257    1258         1       120.020      5.573088E+02     ; C-C-C, prebuilt ca-ca-ca
 1256    1257    1315         1       119.880      4.033376E+02     ; C-C-H, prebuilt ca-ca-ha
 1258    1257    1315         1       119.880      4.033376E+02     ; C-C-H, prebuilt ca-ca-ha
 1257    1258    1260         1       120.020      5.573088E+02     ; C-C-C, prebuilt ca-ca-ca
 1257    1258    1272         1       120.330      5.380624E+02     ; C-C-C, prebuilt c-ca-ca
 1260    1258    1272         1       120.330      5.380624E+02     ; C-C-C, prebuilt c-ca-ca
 1256    1259    1261         1       120.020      5.573088E+02     ; C-C-C, prebuilt ca-ca-ca
 1256    1259    1314         1       119.880      4.033376E+02     ; C-C-H, prebuilt ca-ca-ha
 1261    1259    1314         1       119.880      4.033376E+02     ; C-C-H, prebuilt ca-ca-ha
 1258    1260    1261         1       120.020      5.573088E+02     ; C-C-C, prebuilt ca-ca-ca
 1258    1260    1274         1       120.330      5.380624E+02     ; C-C-C, prebuilt c-ca-ca
 1261    1260    1274         1       120.330      5.380624E+02     ; C-C-C, prebuilt c-ca-ca
 1259    1261    1260         1       120.020      5.573088E+02     ; C-C-C, prebuilt ca-ca-ca
 1259    1261    1316         1       119.880      4.033376E+02     ; C-C-H, prebuilt ca-ca-ha
 1260    1261    1316         1       119.880      4.033376E+02     ; C-C-H, prebuilt ca-ca-ha
 1253    1262    1256         1       112.240      5.322048E+02     ; C-C-C, prebuilt ca-c3-ca
 1253    1262    1263         1       112.070      5.280208E+02     ; C-C-C, prebuilt c3-c3-ca
 1253    1262    1267         1       112.070      5.280208E+02     ; C-C-C, prebuilt c3-c3-ca
 1256    1262    1263         1       112.070      5.280208E+02     ; C-C-C, prebuilt c3-c3-ca
 1256    1262    1267         1       112.070      5.280208E+02     ; C-C-C, prebuilt c3-c3-ca
 1263    1262    1267         1       111.510      5.263472E+02     ; C-C-C, prebuilt c3-c3-c3
 1262    1263    1264         1       109.240      5.531248E+02     ; C-C-F, prebuilt c3-c3-f
 1262    1263    1265         1       109.240      5.531248E+02     ; C-C-F, prebuilt c3-c3-f
 1262    1263    1266         1       109.240      5.531248E+02     ; C-C-F, prebuilt c3-c3-f
 1264    1263    1265         1       107.360      5.932912E+02     ; F-C-F, prebuilt f-c3-f
 1264    1263    1266         1       107.360      5.932912E+02     ; F-C-F, prebuilt f-c3-f
 1265    1263    1266         1       107.360      5.932912E+02     ; F-C-F, prebuilt f-c3-f
 1262    1267    1268         1       109.240      5.531248E+02     ; C-C-F, prebuilt c3-c3-f
 1262    1267    1269         1       109.240      5.531248E+02     ; C-C-F, prebuilt c3-c3-f
 1262    1267    1270         1       109.240      5.531248E+02     ; C-C-F, prebuilt c3-c3-f
 1268    1267    1269         1       107.360      5.932912E+02     ; F-C-F, prebuilt f-c3-f
 1268    1267    1270         1       107.360      5.932912E+02     ; F-C-F, prebuilt f-c3-f
 1269    1267    1270         1       107.360      5.932912E+02     ; F-C-F, prebuilt f-c3-f
 1258    1272    1273         1       115.250      5.665136E+02     ; C-C-N, prebuilt ca-c-n
 1258    1272    1317         1       122.600      5.748816E+02     ; C-C-O, prebuilt ca-c-o
 1273    1272    1317         1       123.050      6.209056E+02     ; N-C-O, prebuilt n-c-o
 1272    1273    1274         1       127.080      5.330416E+02     ; C-N-C, prebuilt c-n-c
 1272    1273    1389         1       123.710      5.338784E+02     ; C-N-C, prebuilt c-n-ca
 1274    1273    1389         1       123.710      5.338784E+02     ; C-N-C, prebuilt c-n-ca
 1260    1274    1273         1       115.250      5.665136E+02     ; C-C-N, prebuilt ca-c-n
 1260    1274    1275         1       122.600      5.748816E+02     ; C-C-O, prebuilt ca-c-o
 1273    1274    1275         1       123.050      6.209056E+02     ; N-C-O, prebuilt n-c-o
 1239    1276    1277         1       120.600      5.589824E+02     ; C-C-C, prebuilt c2-ca-ca
 1239    1276    1278         1       120.600      5.589824E+02     ; C-C-C, prebuilt c2-ca-ca
 1277    1276    1278         1       120.020      5.573088E+02     ; C-C-C, prebuilt ca-ca-ca
 1276    1277    1279         1       120.020      5.573088E+02     ; C-C-C, prebuilt ca-ca-ca
 1276    1277    1318         1       119.880      4.033376E+02     ; C-C-H, prebuilt ca-ca-ha
 1279    1277    1318         1       119.880      4.033376E+02     ; C-C-H, prebuilt ca-ca-ha
 1276    1278    1280         1       120.020      5.573088E+02     ; C-C-C, prebuilt ca-ca-ca
 1276    1278    1320         1       119.880      4.033376E+02     ; C-C-H, prebuilt ca-ca-ha
 1280    1278    1320         1       119.880      4.033376E+02     ; C-C-H, prebuilt ca-ca-ha
 1277    1279    1281         1       120.020      5.573088E+02     ; C-C-C, prebuilt ca-ca-ca
 1277    1279    1319         1       119.880      4.033376E+02     ; C-C-H, prebuilt ca-ca-ha
 1281    1279    1319         1       119.880      4.033376E+02     ; C-C-H, prebuilt ca-ca-ha
 1278    1280    1281         1       120.020      5.573088E+02     ; C-C-C, prebuilt ca-ca-ca
 1278    1280    1326         1       119.880      4.033376E+02     ; C-C-H, prebuilt ca-ca-ha
 1281    1280    1326         1       119.880      4.033376E+02     ; C-C-H, prebuilt ca-ca-ha
 1279    1281    1280         1       120.020      5.573088E+02     ; C-C-C, prebuilt ca-ca-ca
 1279    1281    1282         1       120.600      5.589824E+02     ; C-C-C, prebuilt c2-ca-ca
 1280    1281    1282         1       120.600      5.589824E+02     ; C-C-C, prebuilt c2-ca-ca
 1281    1282    1283         1       128.294      5.000000E+02     ; C-C-N (ca-c2-na) missing and simply guessed
 1281    1282    1284         1       125.721      5.000000E+02     ; C-C-N (ca-c2-na) missing and simply guessed
 1283    1282    1284         1       109.330      6.117008E+02     ; N-C-N, prebuilt na-c2-na
 1282    1283    1285         1       110.370      5.631664E+02     ; C-N-C, prebuilt c2-na-c2
 1282    1283    1291         1       124.970      5.322048E+02     ; C-N-C, prebuilt c2-na-ca
 1285    1283    1291         1       124.970      5.322048E+02     ; C-N-C, prebuilt c2-na-ca
 1282    1284    1286         1       110.370      5.631664E+02     ; C-N-C, prebuilt c2-na-c2
 1282    1284    1287         1       117.200      5.347152E+02     ; C-N-C, prebuilt c2-na-c3
 1286    1284    1287         1       117.200      5.347152E+02     ; C-N-C, prebuilt c2-na-c3
 1283    1285    1286         1       121.940      5.782288E+02     ; N-C-C, prebuilt c2-c2-na
 1283    1285    1325         1       112.970      4.250944E+02     ; N-C-H, prebuilt h4-c2-na
 1286    1285    1325         1       122.670      4.133792E+02     ; C-C-H, prebuilt c2-c2-h4
 1284    1286    1285         1       121.940      5.782288E+02     ; N-C-C, prebuilt c2-c2-na
 1284    1286    1297         1       117.200      5.539616E+02     ; N-C-C, prebuilt c3-c2-na
 1285    1286    1297         1       123.630      5.363888E+02     ; C-C-C, prebuilt c2-c2-c3
 1284    1287    1288         1       108.780      4.167264E+02     ; N-C-H, prebuilt h1-c3-na
 1284    1287    1289         1       108.780      4.167264E+02     ; N-C-H, prebuilt h1-c3-na
 1284    1287    1290         1       108.780      4.167264E+02     ; N-C-H, prebuilt h1-c3-na
 1288    1287    1289         1       108.460      3.280256E+02     ; H-C-H, prebuilt h1-c3-h1
 1288    1287    1290         1       108.460      3.280256E+02     ; H-C-H, prebuilt h1-c3-h1
 1289    1287    1290         1       108.460      3.280256E+02     ; H-C-H, prebuilt h1-c3-h1
 1283    1291    1292         1       118.340      5.782288E+02     ; N-C-C, prebuilt ca-ca-na
 1283    1291    1296         1       118.340      5.782288E+02     ; N-C-C, prebuilt ca-ca-na
 1292    1291    1296         1       120.020      5.573088E+02     ; C-C-C, prebuilt ca-ca-ca
 1291    1292    1293         1       120.020      5.573088E+02     ; C-C-C, prebuilt ca-ca-ca
 1291    1292    1322         1       119.880      4.033376E+02     ; C-C-H, prebuilt ca-ca-ha
 1293    1292    1322         1       119.880      4.033376E+02     ; C-C-H, prebuilt ca-ca-ha
 1292    1293    1294         1       120.020      5.573088E+02     ; C-C-C, prebuilt ca-ca-ca
 1292    1293    1321         1       119.880      4.033376E+02     ; C-C-H, prebuilt ca-ca-ha
 1294    1293    1321         1       119.880      4.033376E+02     ; C-C-H, prebuilt ca-ca-ha
 1178    1294    1293         1       120.190      5.681872E+02     ; N-C-C, prebuilt ca-ca-n
 1178    1294    1295         1       120.190      5.681872E+02     ; N-C-C, prebuilt ca-ca-n
 1293    1294    1295         1       120.020      5.573088E+02     ; C-C-C, prebuilt ca-ca-ca
 1294    1295    1296         1       120.020      5.573088E+02     ; C-C-C, prebuilt ca-ca-ca
 1294    1295    1323         1       119.880      4.033376E+02     ; C-C-H, prebuilt ca-ca-ha
 1296    1295    1323         1       119.880      4.033376E+02     ; C-C-H, prebuilt ca-ca-ha
 1291    1296    1295         1       120.020      5.573088E+02     ; C-C-C, prebuilt ca-ca-ca
 1291    1296    1324         1       119.880      4.033376E+02     ; C-C-H, prebuilt ca-ca-ha
 1295    1296    1324         1       119.880      4.033376E+02     ; C-C-H, prebuilt ca-ca-ha
 1286    1297    1298         1       110.760      5.556352E+02     ; C-C-F, prebuilt c2-c3-f
 1286    1297    1299         1       110.760      5.556352E+02     ; C-C-F, prebuilt c2-c3-f
 1286    1297    1300         1       110.760      5.556352E+02     ; C-C-F, prebuilt c2-c3-f
 1298    1297    1299         1       107.360      5.932912E+02     ; F-C-F, prebuilt f-c3-f
 1298    1297    1300         1       107.360      5.932912E+02     ; F-C-F, prebuilt f-c3-f
 1299    1297    1300         1       107.360      5.932912E+02     ; F-C-F, prebuilt f-c3-f
 1238    1301    1302         1       121.940      5.782288E+02     ; N-C-C, prebuilt c2-c2-na
 1238    1301    1306         1       112.970      4.250944E+02     ; N-C-H, prebuilt h4-c2-na
 1302    1301    1306         1       122.670      4.133792E+02     ; C-C-H, prebuilt c2-c2-h4
 1237    1302    1301         1       121.940      5.782288E+02     ; N-C-C, prebuilt c2-c2-na
 1237    1302    1303         1       117.200      5.539616E+02     ; N-C-C, prebuilt c3-c2-na
 1301    1302    1303         1       123.630      5.363888E+02     ; C-C-C, prebuilt c2-c2-c3
 1302    1303    1304         1       110.760      5.556352E+02     ; C-C-F, prebuilt c2-c3-f
 1302    1303    1305         1       110.760      5.556352E+02     ; C-C-F, prebuilt c2-c3-f
 1302    1303    1327         1       110.760      5.556352E+02     ; C-C-F, prebuilt c2-c3-f
 1304    1303    1305         1       107.360      5.932912E+02     ; F-C-F, prebuilt f-c3-f
 1304    1303    1327         1       107.360      5.932912E+02     ; F-C-F, prebuilt f-c3-f
 1305    1303    1327         1       107.360      5.932912E+02     ; F-C-F, prebuilt f-c3-f
 1237    1328    1329         1       108.780      4.167264E+02     ; N-C-H, prebuilt h1-c3-na
 1237    1328    1330         1       108.780      4.167264E+02     ; N-C-H, prebuilt h1-c3-na
 1237    1328    1331         1       108.780      4.167264E+02     ; N-C-H, prebuilt h1-c3-na
 1329    1328    1330         1       108.460      3.280256E+02     ; H-C-H, prebuilt h1-c3-h1
 1329    1328    1331         1       108.460      3.280256E+02     ; H-C-H, prebuilt h1-c3-h1
 1330    1328    1331         1       108.460      3.280256E+02     ; H-C-H, prebuilt h1-c3-h1
 1334    1332    1397         1       110.370      5.631664E+02     ; C-N-C, prebuilt c2-na-c2
 1334    1332    1423         1       117.200      5.347152E+02     ; C-N-C, prebuilt c2-na-c3
 1397    1332    1423         1       117.200      5.347152E+02     ; C-N-C, prebuilt c2-na-c3
 1334    1333    1335         1       124.970      5.322048E+02     ; C-N-C, prebuilt c2-na-ca
 1334    1333    1396         1       110.370      5.631664E+02     ; C-N-C, prebuilt c2-na-c2
 1335    1333    1396         1       124.970      5.322048E+02     ; C-N-C, prebuilt c2-na-ca
 1332    1334    1333         1       109.330      6.117008E+02     ; N-C-N, prebuilt na-c2-na
 1332    1334    1371         1       124.931      5.000000E+02     ; N-C-C (na-c2-ca) missing and simply guessed
 1333    1334    1371         1       128.408      5.000000E+02     ; N-C-C (na-c2-ca) missing and simply guessed
 1333    1335    1336         1       118.340      5.782288E+02     ; N-C-C, prebuilt ca-ca-na
 1333    1335    1340         1       118.340      5.782288E+02     ; N-C-C, prebuilt ca-ca-na
 1336    1335    1340         1       120.020      5.573088E+02     ; C-C-C, prebuilt ca-ca-ca
 1335    1336    1337         1       120.020      5.573088E+02     ; C-C-C, prebuilt ca-ca-ca
 1335    1336    1402         1       119.880      4.033376E+02     ; C-C-H, prebuilt ca-ca-ha
 1337    1336    1402         1       119.880      4.033376E+02     ; C-C-H, prebuilt ca-ca-ha
 1336    1337    1338         1       120.020      5.573088E+02     ; C-C-C, prebuilt ca-ca-ca
 1336    1337    1403         1       119.880      4.033376E+02     ; C-C-H, prebuilt ca-ca-ha
 1338    1337    1403         1       119.880      4.033376E+02     ; C-C-H, prebuilt ca-ca-ha
 1337    1338    1339         1       120.020      5.573088E+02     ; C-C-C, prebuilt ca-ca-ca
 1337    1338    1341         1       120.190      5.681872E+02     ; C-C-N, prebuilt ca-ca-n
 1339    1338    1341         1       120.190      5.681872E+02     ; C-C-N, prebuilt ca-ca-n
 1338    1339    1340         1       120.020      5.573088E+02     ; C-C-C, prebuilt ca-ca-ca
 1338    1339    1405         1       119.880      4.033376E+02     ; C-C-H, prebuilt ca-ca-ha
 1340    1339    1405         1       119.880      4.033376E+02     ; C-C-H, prebuilt ca-ca-ha
 1335    1340    1339         1       120.020      5.573088E+02     ; C-C-C, prebuilt ca-ca-ca
 1335    1340    1404         1       119.880      4.033376E+02     ; C-C-H, prebuilt ca-ca-ha
 1339    1340    1404         1       119.880      4.033376E+02     ; C-C-H, prebuilt ca-ca-ha
 1338    1341    1342         1       123.710      5.338784E+02     ; C-N-C, prebuilt c-n-ca
 1338    1341    1345         1       123.710      5.338784E+02     ; C-N-C, prebuilt c-n-ca
 1342    1341    1345         1       127.080      5.330416E+02     ; C-N-C, prebuilt c-n-c
 1341    1342    1343         1       115.250      5.665136E+02     ; N-C-C, prebuilt ca-c-n
 1341    1342    1366         1       123.050      6.209056E+02     ; N-C-O, prebuilt n-c-o
 1343    1342    1366         1       122.600      5.748816E+02     ; C-C-O, prebuilt ca-c-o
 1342    1343    1344         1       120.330      5.380624E+02     ; C-C-C, prebuilt c-ca-ca
 1342    1343    1347         1       120.330      5.380624E+02     ; C-C-C, prebuilt c-ca-ca
 1344    1343    1347         1       120.020      5.573088E+02     ; C-C-C, prebuilt ca-ca-ca
 1343    1344    1345         1       120.330      5.380624E+02     ; C-C-C, prebuilt c-ca-ca
 1343    1344    1350         1       120.020      5.573088E+02     ; C-C-C, prebuilt ca-ca-ca
 1345    1344    1350         1       120.330      5.380624E+02     ; C-C-C, prebuilt c-ca-ca
 1341    1345    1344         1       115.250      5.665136E+02     ; N-C-C, prebuilt ca-c-n
 1341    1345    1346         1       123.050      6.209056E+02     ; N-C-O, prebuilt n-c-o
 1344    1345    1346         1       122.600      5.748816E+02     ; C-C-O, prebuilt ca-c-o
 1343    1347    1348         1       120.020      5.573088E+02     ; C-C-C, prebuilt ca-ca-ca
 1343    1347    1406         1       119.880      4.033376E+02     ; C-C-H, prebuilt ca-ca-ha
 1348    1347    1406         1       119.880      4.033376E+02     ; C-C-H, prebuilt ca-ca-ha
 1347    1348    1349         1       120.020      5.573088E+02     ; C-C-C, prebuilt ca-ca-ca
 1347    1348    1357         1       120.770      5.313680E+02     ; C-C-C, prebuilt c3-ca-ca
 1349    1348    1357         1       120.770      5.313680E+02     ; C-C-C, prebuilt c3-ca-ca
 1348    1349    1350         1       120.020      5.573088E+02     ; C-C-C, prebuilt ca-ca-ca
 1348    1349    1407         1       119.880      4.033376E+02     ; C-C-H, prebuilt ca-ca-ha
 1350    1349    1407         1       119.880      4.033376E+02     ; C-C-H, prebuilt ca-ca-ha
 1344    1350    1349         1       120.020      5.573088E+02     ; C-C-C, prebuilt ca-ca-ca
 1344    1350    1408         1       119.880      4.033376E+02     ; C-C-H, prebuilt ca-ca-ha
 1349    1350    1408         1       119.880      4.033376E+02     ; C-C-H, prebuilt ca-ca-ha
 1352    1351    1354         1       120.020      5.573088E+02     ; C-C-C, prebuilt ca-ca-ca
 1352    1351    1357         1       120.770      5.313680E+02     ; C-C-C, prebuilt c3-ca-ca
 1354    1351    1357         1       120.770      5.313680E+02     ; C-C-C, prebuilt c3-ca-ca
 1351    1352    1353         1       120.020      5.573088E+02     ; C-C-C, prebuilt ca-ca-ca
 1351    1352    1410         1       119.880      4.033376E+02     ; C-C-H, prebuilt ca-ca-ha
 1353    1352    1410         1       119.880      4.033376E+02     ; C-C-H, prebuilt ca-ca-ha
 1352    1353    1355         1       120.020      5.573088E+02     ; C-C-C, prebuilt ca-ca-ca
 1352    1353    1367         1       120.330      5.380624E+02     ; C-C-C, prebuilt c-ca-ca
 1355    1353    1367         1       120.330      5.380624E+02     ; C-C-C, prebuilt c-ca-ca
 1351    1354    1356         1       120.020      5.573088E+02     ; C-C-C, prebuilt ca-ca-ca
 1351    1354    1409         1       119.880      4.033376E+02     ; C-C-H, prebuilt ca-ca-ha
 1356    1354    1409         1       119.880      4.033376E+02     ; C-C-H, prebuilt ca-ca-ha
 1353    1355    1356         1       120.020      5.573088E+02     ; C-C-C, prebuilt ca-ca-ca
 1353    1355    1369         1       120.330      5.380624E+02     ; C-C-C, prebuilt c-ca-ca
 1356    1355    1369         1       120.330      5.380624E+02     ; C-C-C, prebuilt c-ca-ca
 1354    1356    1355         1       120.020      5.573088E+02     ; C-C-C, prebuilt ca-ca-ca
 1354    1356    1411         1       119.880      4.033376E+02     ; C-C-H, prebuilt ca-ca-ha
 1355    1356    1411         1       119.880      4.033376E+02     ; C-C-H, prebuilt ca-ca-ha
 1348    1357    1351         1       112.240      5.322048E+02     ; C-C-C, prebuilt ca-c3-ca
 1348    1357    1358         1       112.070      5.280208E+02     ; C-C-C, prebuilt c3-c3-ca
 1348    1357    1362         1       112.070      5.280208E+02     ; C-C-C, prebuilt c3-c3-ca
 1351    1357    1358         1       112.070      5.280208E+02     ; C-C-C, prebuilt c3-c3-ca
 1351    1357    1362         1       112.070      5.280208E+02     ; C-C-C, prebuilt c3-c3-ca
 1358    1357    1362         1       111.510      5.263472E+02     ; C-C-C, prebuilt c3-c3-c3
 1357    1358    1359         1       109.240      5.531248E+02     ; C-C-F, prebuilt c3-c3-f
 1357    1358    1360         1       109.240      5.531248E+02     ; C-C-F, prebuilt c3-c3-f
 1357    1358    1361         1       109.240      5.531248E+02     ; C-C-F, prebuilt c3-c3-f
 1359    1358    1360         1       107.360      5.932912E+02     ; F-C-F, prebuilt f-c3-f
 1359    1358    1361         1       107.360      5.932912E+02     ; F-C-F, prebuilt f-c3-f
 1360    1358    1361         1       107.360      5.932912E+02     ; F-C-F, prebuilt f-c3-f
 1357    1362    1363         1       109.240      5.531248E+02     ; C-C-F, prebuilt c3-c3-f
 1357    1362    1364         1       109.240      5.531248E+02     ; C-C-F, prebuilt c3-c3-f
 1357    1362    1365         1       109.240      5.531248E+02     ; C-C-F, prebuilt c3-c3-f
 1363    1362    1364         1       107.360      5.932912E+02     ; F-C-F, prebuilt f-c3-f
 1363    1362    1365         1       107.360      5.932912E+02     ; F-C-F, prebuilt f-c3-f
 1364    1362    1365         1       107.360      5.932912E+02     ; F-C-F, prebuilt f-c3-f
 1353    1367    1368         1       115.250      5.665136E+02     ; C-C-N, prebuilt ca-c-n
 1353    1367    1412         1       122.600      5.748816E+02     ; C-C-O, prebuilt ca-c-o
 1368    1367    1412         1       123.050      6.209056E+02     ; N-C-O, prebuilt n-c-o
 1367    1368    1369         1       127.080      5.330416E+02     ; C-N-C, prebuilt c-n-c
 1367    1368    1484         1       123.710      5.338784E+02     ; C-N-C, prebuilt c-n-ca
 1369    1368    1484         1       123.710      5.338784E+02     ; C-N-C, prebuilt c-n-ca
 1355    1369    1368         1       115.250      5.665136E+02     ; C-C-N, prebuilt ca-c-n
 1355    1369    1370         1       122.600      5.748816E+02     ; C-C-O, prebuilt ca-c-o
 1368    1369    1370         1       123.050      6.209056E+02     ; N-C-O, prebuilt n-c-o
 1334    1371    1372         1       120.600      5.589824E+02     ; C-C-C, prebuilt c2-ca-ca
 1334    1371    1373         1       120.600      5.589824E+02     ; C-C-C, prebuilt c2-ca-ca
 1372    1371    1373         1       120.020      5.573088E+02     ; C-C-C, prebuilt ca-ca-ca
 1371    1372    1374         1       120.020      5.573088E+02     ; C-C-C, prebuilt ca-ca-ca
 1371    1372    1413         1       119.880      4.033376E+02     ; C-C-H, prebuilt ca-ca-ha
 1374    1372    1413         1       119.880      4.033376E+02     ; C-C-H, prebuilt ca-ca-ha
 1371    1373    1375         1       120.020      5.573088E+02     ; C-C-C, prebuilt ca-ca-ca
 1371    1373    1415         1       119.880      4.033376E+02     ; C-C-H, prebuilt ca-ca-ha
 1375    1373    1415         1       119.880      4.033376E+02     ; C-C-H, prebuilt ca-ca-ha
 1372    1374    1376         1       120.020      5.573088E+02     ; C-C-C, prebuilt ca-ca-ca
 1372    1374    1414         1       119.880      4.033376E+02     ; C-C-H, prebuilt ca-ca-ha
 1376    1374    1414         1       119.880      4.033376E+02     ; C-C-H, prebuilt ca-ca-ha
 1373    1375    1376         1       120.020      5.573088E+02     ; C-C-C, prebuilt ca-ca-ca
 1373    1375    1421         1       119.880      4.033376E+02     ; C-C-H, prebuilt ca-ca-ha
 1376    1375    1421         1       119.880      4.033376E+02     ; C-C-H, prebuilt ca-ca-ha
 1374    1376    1375         1       120.020      5.573088E+02     ; C-C-C, prebuilt ca-ca-ca
 1374    1376    1377         1       120.600      5.589824E+02     ; C-C-C, prebuilt c2-ca-ca
 1375    1376    1377         1       120.600      5.589824E+02     ; C-C-C, prebuilt c2-ca-ca
 1376    1377    1378         1       129.677      5.000000E+02     ; C-C-N (ca-c2-na) missing and simply guessed
 1376    1377    1379         1       124.449      5.000000E+02     ; C-C-N (ca-c2-na) missing and simply guessed
 1378    1377    1379         1       109.330      6.117008E+02     ; N-C-N, prebuilt na-c2-na
 1377    1378    1380         1       110.370      5.631664E+02     ; C-N-C, prebuilt c2-na-c2
 1377    1378    1386         1       124.970      5.322048E+02     ; C-N-C, prebuilt c2-na-ca
 1380    1378    1386         1       124.970      5.322048E+02     ; C-N-C, prebuilt c2-na-ca
 1377    1379    1381         1       110.370      5.631664E+02     ; C-N-C, prebuilt c2-na-c2
 1377    1379    1382         1       117.200      5.347152E+02     ; C-N-C, prebuilt c2-na-c3
 1381    1379    1382         1       117.200      5.347152E+02     ; C-N-C, prebuilt c2-na-c3
 1378    1380    1381         1       121.940      5.782288E+02     ; N-C-C, prebuilt c2-c2-na
 1378    1380    1420         1       112.970      4.250944E+02     ; N-C-H, prebuilt h4-c2-na
 1381    1380    1420         1       122.670      4.133792E+02     ; C-C-H, prebuilt c2-c2-h4
 1379    1381    1380         1       121.940      5.782288E+02     ; N-C-C, prebuilt c2-c2-na
 1379    1381    1392         1       117.200      5.539616E+02     ; N-C-C, prebuilt c3-c2-na
 1380    1381    1392         1       123.630      5.363888E+02     ; C-C-C, prebuilt c2-c2-c3
 1379    1382    1383         1       108.780      4.167264E+02     ; N-C-H, prebuilt h1-c3-na
 1379    1382    1384         1       108.780      4.167264E+02     ; N-C-H, prebuilt h1-c3-na
 1379    1382    1385         1       108.780      4.167264E+02     ; N-C-H, prebuilt h1-c3-na
 1383    1382    1384         1       108.460      3.280256E+02     ; H-C-H, prebuilt h1-c3-h1
 1383    1382    1385         1       108.460      3.280256E+02     ; H-C-H, prebuilt h1-c3-h1
 1384    1382    1385         1       108.460      3.280256E+02     ; H-C-H, prebuilt h1-c3-h1
 1378    1386    1387         1       118.340      5.782288E+02     ; N-C-C, prebuilt ca-ca-na
 1378    1386    1391         1       118.340      5.782288E+02     ; N-C-C, prebuilt ca-ca-na
 1387    1386    1391         1       120.020      5.573088E+02     ; C-C-C, prebuilt ca-ca-ca
 1386    1387    1388         1       120.020      5.573088E+02     ; C-C-C, prebuilt ca-ca-ca
 1386    1387    1417         1       119.880      4.033376E+02     ; C-C-H, prebuilt ca-ca-ha
 1388    1387    1417         1       119.880      4.033376E+02     ; C-C-H, prebuilt ca-ca-ha
 1387    1388    1389         1       120.020      5.573088E+02     ; C-C-C, prebuilt ca-ca-ca
 1387    1388    1416         1       119.880      4.033376E+02     ; C-C-H, prebuilt ca-ca-ha
 1389    1388    1416         1       119.880      4.033376E+02     ; C-C-H, prebuilt ca-ca-ha
 1273    1389    1388         1       120.190      5.681872E+02     ; N-C-C, prebuilt ca-ca-n
 1273    1389    1390         1       120.190      5.681872E+02     ; N-C-C, prebuilt ca-ca-n
 1388    1389    1390         1       120.020      5.573088E+02     ; C-C-C, prebuilt ca-ca-ca
 1389    1390    1391         1       120.020      5.573088E+02     ; C-C-C, prebuilt ca-ca-ca
 1389    1390    1418         1       119.880      4.033376E+02     ; C-C-H, prebuilt ca-ca-ha
 1391    1390    1418         1       119.880      4.033376E+02     ; C-C-H, prebuilt ca-ca-ha
 1386    1391    1390         1       120.020      5.573088E+02     ; C-C-C, prebuilt ca-ca-ca
 1386    1391    1419         1       119.880      4.033376E+02     ; C-C-H, prebuilt ca-ca-ha
 1390    1391    1419         1       119.880      4.033376E+02     ; C-C-H, prebuilt ca-ca-ha
 1381    1392    1393         1       110.760      5.556352E+02     ; C-C-F, prebuilt c2-c3-f
 1381    1392    1394         1       110.760      5.556352E+02     ; C-C-F, prebuilt c2-c3-f
 1381    1392    1395         1       110.760      5.556352E+02     ; C-C-F, prebuilt c2-c3-f
 1393    1392    1394         1       107.360      5.932912E+02     ; F-C-F, prebuilt f-c3-f
 1393    1392    1395         1       107.360      5.932912E+02     ; F-C-F, prebuilt f-c3-f
 1394    1392    1395         1       107.360      5.932912E+02     ; F-C-F, prebuilt f-c3-f
 1333    1396    1397         1       121.940      5.782288E+02     ; N-C-C, prebuilt c2-c2-na
 1333    1396    1401         1       112.970      4.250944E+02     ; N-C-H, prebuilt h4-c2-na
 1397    1396    1401         1       122.670      4.133792E+02     ; C-C-H, prebuilt c2-c2-h4
 1332    1397    1396         1       121.940      5.782288E+02     ; N-C-C, prebuilt c2-c2-na
 1332    1397    1398         1       117.200      5.539616E+02     ; N-C-C, prebuilt c3-c2-na
 1396    1397    1398         1       123.630      5.363888E+02     ; C-C-C, prebuilt c2-c2-c3
 1397    1398    1399         1       110.760      5.556352E+02     ; C-C-F, prebuilt c2-c3-f
 1397    1398    1400         1       110.760      5.556352E+02     ; C-C-F, prebuilt c2-c3-f
 1397    1398    1422         1       110.760      5.556352E+02     ; C-C-F, prebuilt c2-c3-f
 1399    1398    1400         1       107.360      5.932912E+02     ; F-C-F, prebuilt f-c3-f
 1399    1398    1422         1       107.360      5.932912E+02     ; F-C-F, prebuilt f-c3-f
 1400    1398    1422         1       107.360      5.932912E+02     ; F-C-F, prebuilt f-c3-f
 1332    1423    1424         1       108.780      4.167264E+02     ; N-C-H, prebuilt h1-c3-na
 1332    1423    1425         1       108.780      4.167264E+02     ; N-C-H, prebuilt h1-c3-na
 1332    1423    1426         1       108.780      4.167264E+02     ; N-C-H, prebuilt h1-c3-na
 1424    1423    1425         1       108.460      3.280256E+02     ; H-C-H, prebuilt h1-c3-h1
 1424    1423    1426         1       108.460      3.280256E+02     ; H-C-H, prebuilt h1-c3-h1
 1425    1423    1426         1       108.460      3.280256E+02     ; H-C-H, prebuilt h1-c3-h1
 1429    1427    1492         1       110.370      5.631664E+02     ; C-N-C, prebuilt c2-na-c2
 1429    1427    1518         1       117.200      5.347152E+02     ; C-N-C, prebuilt c2-na-c3
 1492    1427    1518         1       117.200      5.347152E+02     ; C-N-C, prebuilt c2-na-c3
 1429    1428    1430         1       124.970      5.322048E+02     ; C-N-C, prebuilt c2-na-ca
 1429    1428    1491         1       110.370      5.631664E+02     ; C-N-C, prebuilt c2-na-c2
 1430    1428    1491         1       124.970      5.322048E+02     ; C-N-C, prebuilt c2-na-ca
 1427    1429    1428         1       109.330      6.117008E+02     ; N-C-N, prebuilt na-c2-na
 1427    1429    1466         1       124.859      5.000000E+02     ; N-C-C (na-c2-ca) missing and simply guessed
 1428    1429    1466         1       128.800      5.000000E+02     ; N-C-C (na-c2-ca) missing and simply guessed
 1428    1430    1431         1       118.340      5.782288E+02     ; N-C-C, prebuilt ca-ca-na
 1428    1430    1435         1       118.340      5.782288E+02     ; N-C-C, prebuilt ca-ca-na
 1431    1430    1435         1       120.020      5.573088E+02     ; C-C-C, prebuilt ca-ca-ca
 1430    1431    1432         1       120.020      5.573088E+02     ; C-C-C, prebuilt ca-ca-ca
 1430    1431    1497         1       119.880      4.033376E+02     ; C-C-H, prebuilt ca-ca-ha
 1432    1431    1497         1       119.880      4.033376E+02     ; C-C-H, prebuilt ca-ca-ha
 1431    1432    1433         1       120.020      5.573088E+02     ; C-C-C, prebuilt ca-ca-ca
 1431    1432    1498         1       119.880      4.033376E+02     ; C-C-H, prebuilt ca-ca-ha
 1433    1432    1498         1       119.880      4.033376E+02     ; C-C-H, prebuilt ca-ca-ha
 1432    1433    1434         1       120.020      5.573088E+02     ; C-C-C, prebuilt ca-ca-ca
 1432    1433    1436         1       120.190      5.681872E+02     ; C-C-N, prebuilt ca-ca-n
 1434    1433    1436         1       120.190      5.681872E+02     ; C-C-N, prebuilt ca-ca-n
 1433    1434    1435         1       120.020      5.573088E+02     ; C-C-C, prebuilt ca-ca-ca
 1433    1434    1500         1       119.880      4.033376E+02     ; C-C-H, prebuilt ca-ca-ha
 1435    1434    1500         1       119.880      4.033376E+02     ; C-C-H, prebuilt ca-ca-ha
 1430    1435    1434         1       120.020      5.573088E+02     ; C-C-C, prebuilt ca-ca-ca
 1430    1435    1499         1       119.880      4.033376E+02     ; C-C-H, prebuilt ca-ca-ha
 1434    1435    1499         1       119.880      4.033376E+02     ; C-C-H, prebuilt ca-ca-ha
 1433    1436    1437         1       123.710      5.338784E+02     ; C-N-C, prebuilt c-n-ca
 1433    1436    1440         1       123.710      5.338784E+02     ; C-N-C, prebuilt c-n-ca
 1437    1436    1440         1       127.080      5.330416E+02     ; C-N-C, prebuilt c-n-c
 1436    1437    1438         1       115.250      5.665136E+02     ; N-C-C, prebuilt ca-c-n
 1436    1437    1461         1       123.050      6.209056E+02     ; N-C-O, prebuilt n-c-o
 1438    1437    1461         1       122.600      5.748816E+02     ; C-C-O, prebuilt ca-c-o
 1437    1438    1439         1       120.330      5.380624E+02     ; C-C-C, prebuilt c-ca-ca
 1437    1438    1442         1       120.330      5.380624E+02     ; C-C-C, prebuilt c-ca-ca
 1439    1438    1442         1       120.020      5.573088E+02     ; C-C-C, prebuilt ca-ca-ca
 1438    1439    1440         1       120.330      5.380624E+02     ; C-C-C, prebuilt c-ca-ca
 1438    1439    1445         1       120.020      5.573088E+02     ; C-C-C, prebuilt ca-ca-ca
 1440    1439    1445         1       120.330      5.380624E+02     ; C-C-C, prebuilt c-ca-ca
 1436    1440    1439         1       115.250      5.665136E+02     ; N-C-C, prebuilt ca-c-n
 1436    1440    1441         1       123.050      6.209056E+02     ; N-C-O, prebuilt n-c-o
 1439    1440    1441         1       122.600      5.748816E+02     ; C-C-O, prebuilt ca-c-o
 1438    1442    1443         1       120.020      5.573088E+02     ; C-C-C, prebuilt ca-ca-ca
 1438    1442    1501         1       119.880      4.033376E+02     ; C-C-H, prebuilt ca-ca-ha
 1443    1442    1501         1       119.880      4.033376E+02     ; C-C-H, prebuilt ca-ca-ha
 1442    1443    1444         1       120.020      5.573088E+02     ; C-C-C, prebuilt ca-ca-ca
 1442    1443    1452         1       120.770      5.313680E+02     ; C-C-C, prebuilt c3-ca-ca
 1444    1443    1452         1       120.770      5.313680E+02     ; C-C-C, prebuilt c3-ca-ca
 1443    1444    1445         1       120.020      5.573088E+02     ; C-C-C, prebuilt ca-ca-ca
 1443    1444    1502         1       119.880      4.033376E+02     ; C-C-H, prebuilt ca-ca-ha
 1445    1444    1502         1       119.880      4.033376E+02     ; C-C-H, prebuilt ca-ca-ha
 1439    1445    1444         1       120.020      5.573088E+02     ; C-C-C, prebuilt ca-ca-ca
 1439    1445    1503         1       119.880      4.033376E+02     ; C-C-H, prebuilt ca-ca-ha
 1444    1445    1503         1       119.880      4.033376E+02     ; C-C-H, prebuilt ca-ca-ha
 1447    1446    1449         1       120.020      5.573088E+02     ; C-C-C, prebuilt ca-ca-ca
 1447    1446    1452         1       120.770      5.313680E+02     ; C-C-C, prebuilt c3-ca-ca
 1449    1446    1452         1       120.770      5.313680E+02     ; C-C-C, prebuilt c3-ca-ca
 1446    1447    1448         1       120.020      5.573088E+02     ; C-C-C, prebuilt ca-ca-ca
 1446    1447    1505         1       119.880      4.033376E+02     ; C-C-H, prebuilt ca-ca-ha
 1448    1447    1505         1       119.880      4.033376E+02     ; C-C-H, prebuilt ca-ca-ha
 1447    1448    1450         1       120.020      5.573088E+02     ; C-C-C, prebuilt ca-ca-ca
 1447    1448    1462         1       120.330      5.380624E+02     ; C-C-C, prebuilt c-ca-ca
 1450    1448    1462         1       120.330      5.380624E+02     ; C-C-C, prebuilt c-ca-ca
 1446    1449    1451         1       120.020      5.573088E+02     ; C-C-C, prebuilt ca-ca-ca
 1446    1449    1504         1       119.880      4.033376E+02     ; C-C-H, prebuilt ca-ca-ha
 1451    1449    1504         1       119.880      4.033376E+02     ; C-C-H, prebuilt ca-ca-ha
 1448    1450    1451         1       120.020      5.573088E+02     ; C-C-C, prebuilt ca-ca-ca
 1448    1450    1464         1       120.330      5.380624E+02     ; C-C-C, prebuilt c-ca-ca
 1451    1450    1464         1       120.330      5.380624E+02     ; C-C-C, prebuilt c-ca-ca
 1449    1451    1450         1       120.020      5.573088E+02     ; C-C-C, prebuilt ca-ca-ca
 1449    1451    1506         1       119.880      4.033376E+02     ; C-C-H, prebuilt ca-ca-ha
 1450    1451    1506         1       119.880      4.033376E+02     ; C-C-H, prebuilt ca-ca-ha
 1443    1452    1446         1       112.240      5.322048E+02     ; C-C-C, prebuilt ca-c3-ca
 1443    1452    1453         1       112.070      5.280208E+02     ; C-C-C, prebuilt c3-c3-ca
 1443    1452    1457         1       112.070      5.280208E+02     ; C-C-C, prebuilt c3-c3-ca
 1446    1452    1453         1       112.070      5.280208E+02     ; C-C-C, prebuilt c3-c3-ca
 1446    1452    1457         1       112.070      5.280208E+02     ; C-C-C, prebuilt c3-c3-ca
 1453    1452    1457         1       111.510      5.263472E+02     ; C-C-C, prebuilt c3-c3-c3
 1452    1453    1454         1       109.240      5.531248E+02     ; C-C-F, prebuilt c3-c3-f
 1452    1453    1455         1       109.240      5.531248E+02     ; C-C-F, prebuilt c3-c3-f
 1452    1453    1456         1       109.240      5.531248E+02     ; C-C-F, prebuilt c3-c3-f
 1454    1453    1455         1       107.360      5.932912E+02     ; F-C-F, prebuilt f-c3-f
 1454    1453    1456         1       107.360      5.932912E+02     ; F-C-F, prebuilt f-c3-f
 1455    1453    1456         1       107.360      5.932912E+02     ; F-C-F, prebuilt f-c3-f
 1452    1457    1458         1       109.240      5.531248E+02     ; C-C-F, prebuilt c3-c3-f
 1452    1457    1459         1       109.240      5.531248E+02     ; C-C-F, prebuilt c3-c3-f
 1452    1457    1460         1       109.240      5.531248E+02     ; C-C-F, prebuilt c3-c3-f
 1458    1457    1459         1       107.360      5.932912E+02     ; F-C-F, prebuilt f-c3-f
 1458    1457    1460         1       107.360      5.932912E+02     ; F-C-F, prebuilt f-c3-f
 1459    1457    1460         1       107.360      5.932912E+02     ; F-C-F, prebuilt f-c3-f
 1448    1462    1463         1       115.250      5.665136E+02     ; C-C-N, prebuilt ca-c-n
 1448    1462    1507         1       122.600      5.748816E+02     ; C-C-O, prebuilt ca-c-o
 1463    1462    1507         1       123.050      6.209056E+02     ; N-C-O, prebuilt n-c-o
 1462    1463    1464         1       127.080      5.330416E+02     ; C-N-C, prebuilt c-n-c
 1462    1463    1579         1       123.710      5.338784E+02     ; C-N-C, prebuilt c-n-ca
 1464    1463    1579         1       123.710      5.338784E+02     ; C-N-C, prebuilt c-n-ca
 1450    1464    1463         1       115.250      5.665136E+02     ; C-C-N, prebuilt ca-c-n
 1450    1464    1465         1       122.600      5.748816E+02     ; C-C-O, prebuilt ca-c-o
 1463    1464    1465         1       123.050      6.209056E+02     ; N-C-O, prebuilt n-c-o
 1429    1466    1467         1       120.600      5.589824E+02     ; C-C-C, prebuilt c2-ca-ca
 1429    1466    1468         1       120.600      5.589824E+02     ; C-C-C, prebuilt c2-ca-ca
 1467    1466    1468         1       120.020      5.573088E+02     ; C-C-C, prebuilt ca-ca-ca
 1466    1467    1469         1       120.020      5.573088E+02     ; C-C-C, prebuilt ca-ca-ca
 1466    1467    1508         1       119.880      4.033376E+02     ; C-C-H, prebuilt ca-ca-ha
 1469    1467    1508         1       119.880      4.033376E+02     ; C-C-H, prebuilt ca-ca-ha
 1466    1468    1470         1       120.020      5.573088E+02     ; C-C-C, prebuilt ca-ca-ca
 1466    1468    1510         1       119.880      4.033376E+02     ; C-C-H, prebuilt ca-ca-ha
 1470    1468    1510         1       119.880      4.033376E+02     ; C-C-H, prebuilt ca-ca-ha
 1467    1469    1471         1       120.020      5.573088E+02     ; C-C-C, prebuilt ca-ca-ca
 1467    1469    1509         1       119.880      4.033376E+02     ; C-C-H, prebuilt ca-ca-ha
 1471    1469    1509         1       119.880      4.033376E+02     ; C-C-H, prebuilt ca-ca-ha
 1468    1470    1471         1       120.020      5.573088E+02     ; C-C-C, prebuilt ca-ca-ca
 1468    1470    1516         1       119.880      4.033376E+02     ; C-C-H, prebuilt ca-ca-ha
 1471    1470    1516         1       119.880      4.033376E+02     ; C-C-H, prebuilt ca-ca-ha
 1469    1471    1470         1       120.020      5.573088E+02     ; C-C-C, prebuilt ca-ca-ca
 1469    1471    1472         1       120.600      5.589824E+02     ; C-C-C, prebuilt c2-ca-ca
 1470    1471    1472         1       120.600      5.589824E+02     ; C-C-C, prebuilt c2-ca-ca
 1471    1472    1473         1       128.757      5.000000E+02     ; C-C-N (ca-c2-na) missing and simply guessed
 1471    1472    1474         1       125.292      5.000000E+02     ; C-C-N (ca-c2-na) missing and simply guessed
 1473    1472    1474         1       109.330      6.117008E+02     ; N-C-N, prebuilt na-c2-na
 1472    1473    1475         1       110.370      5.631664E+02     ; C-N-C, prebuilt c2-na-c2
 1472    1473    1481         1       124.970      5.322048E+02     ; C-N-C, prebuilt c2-na-ca
 1475    1473    1481         1       124.970      5.322048E+02     ; C-N-C, prebuilt c2-na-ca
 1472    1474    1476         1       110.370      5.631664E+02     ; C-N-C, prebuilt c2-na-c2
 1472    1474    1477         1       117.200      5.347152E+02     ; C-N-C, prebuilt c2-na-c3
 1476    1474    1477         1       117.200      5.347152E+02     ; C-N-C, prebuilt c2-na-c3
 1473    1475    1476         1       121.940      5.782288E+02     ; N-C-C, prebuilt c2-c2-na
 1473    1475    1515         1       112.970      4.250944E+02     ; N-C-H, prebuilt h4-c2-na
 1476    1475    1515         1       122.670      4.133792E+02     ; C-C-H, prebuilt c2-c2-h4
 1474    1476    1475         1       121.940      5.782288E+02     ; N-C-C, prebuilt c2-c2-na
 1474    1476    1487         1       117.200      5.539616E+02     ; N-C-C, prebuilt c3-c2-na
 1475    1476    1487         1       123.630      5.363888E+02     ; C-C-C, prebuilt c2-c2-c3
 1474    1477    1478         1       108.780      4.167264E+02     ; N-C-H, prebuilt h1-c3-na
 1474    1477    1479         1       108.780      4.167264E+02     ; N-C-H, prebuilt h1-c3-na
 1474    1477    1480         1       108.780      4.167264E+02     ; N-C-H, prebuilt h1-c3-na
 1478    1477    1479         1       108.460      3.280256E+02     ; H-C-H, prebuilt h1-c3-h1
 1478    1477    1480         1       108.460      3.280256E+02     ; H-C-H, prebuilt h1-c3-h1
 1479    1477    1480         1       108.460      3.280256E+02     ; H-C-H, prebuilt h1-c3-h1
 1473    1481    1482         1       118.340      5.782288E+02     ; N-C-C, prebuilt ca-ca-na
 1473    1481    1486         1       118.340      5.782288E+02     ; N-C-C, prebuilt ca-ca-na
 1482    1481    1486         1       120.020      5.573088E+02     ; C-C-C, prebuilt ca-ca-ca
 1481    1482    1483         1       120.020      5.573088E+02     ; C-C-C, prebuilt ca-ca-ca
 1481    1482    1512         1       119.880      4.033376E+02     ; C-C-H, prebuilt ca-ca-ha
 1483    1482    1512         1       119.880      4.033376E+02     ; C-C-H, prebuilt ca-ca-ha
 1482    1483    1484         1       120.020      5.573088E+02     ; C-C-C, prebuilt ca-ca-ca
 1482    1483    1511         1       119.880      4.033376E+02     ; C-C-H, prebuilt ca-ca-ha
 1484    1483    1511         1       119.880      4.033376E+02     ; C-C-H, prebuilt ca-ca-ha
 1368    1484    1483         1       120.190      5.681872E+02     ; N-C-C, prebuilt ca-ca-n
 1368    1484    1485         1       120.190      5.681872E+02     ; N-C-C, prebuilt ca-ca-n
 1483    1484    1485         1       120.020      5.573088E+02     ; C-C-C, prebuilt ca-ca-ca
 1484    1485    1486         1       120.020      5.573088E+02     ; C-C-C, prebuilt ca-ca-ca
 1484    1485    1513         1       119.880      4.033376E+02     ; C-C-H, prebuilt ca-ca-ha
 1486    1485    1513         1       119.880      4.033376E+02     ; C-C-H, prebuilt ca-ca-ha
 1481    1486    1485         1       120.020      5.573088E+02     ; C-C-C, prebuilt ca-ca-ca
 1481    1486    1514         1       119.880      4.033376E+02     ; C-C-H, prebuilt ca-ca-ha
 1485    1486    1514         1       119.880      4.033376E+02     ; C-C-H, prebuilt ca-ca-ha
 1476    1487    1488         1       110.760      5.556352E+02     ; C-C-F, prebuilt c2-c3-f
 1476    1487    1489         1       110.760      5.556352E+02     ; C-C-F, prebuilt c2-c3-f
 1476    1487    1490         1       110.760      5.556352E+02     ; C-C-F, prebuilt c2-c3-f
 1488    1487    1489         1       107.360      5.932912E+02     ; F-C-F, prebuilt f-c3-f
 1488    1487    1490         1       107.360      5.932912E+02     ; F-C-F, prebuilt f-c3-f
 1489    1487    1490         1       107.360      5.932912E+02     ; F-C-F, prebuilt f-c3-f
 1428    1491    1492         1       121.940      5.782288E+02     ; N-C-C, prebuilt c2-c2-na
 1428    1491    1496         1       112.970      4.250944E+02     ; N-C-H, prebuilt h4-c2-na
 1492    1491    1496         1       122.670      4.133792E+02     ; C-C-H, prebuilt c2-c2-h4
 1427    1492    1491         1       121.940      5.782288E+02     ; N-C-C, prebuilt c2-c2-na
 1427    1492    1493         1       117.200      5.539616E+02     ; N-C-C, prebuilt c3-c2-na
 1491    1492    1493         1       123.630      5.363888E+02     ; C-C-C, prebuilt c2-c2-c3
 1492    1493    1494         1       110.760      5.556352E+02     ; C-C-F, prebuilt c2-c3-f
 1492    1493    1495         1       110.760      5.556352E+02     ; C-C-F, prebuilt c2-c3-f
 1492    1493    1517         1       110.760      5.556352E+02     ; C-C-F, prebuilt c2-c3-f
 1494    1493    1495         1       107.360      5.932912E+02     ; F-C-F, prebuilt f-c3-f
 1494    1493    1517         1       107.360      5.932912E+02     ; F-C-F, prebuilt f-c3-f
 1495    1493    1517         1       107.360      5.932912E+02     ; F-C-F, prebuilt f-c3-f
 1427    1518    1519         1       108.780      4.167264E+02     ; N-C-H, prebuilt h1-c3-na
 1427    1518    1520         1       108.780      4.167264E+02     ; N-C-H, prebuilt h1-c3-na
 1427    1518    1521         1       108.780      4.167264E+02     ; N-C-H, prebuilt h1-c3-na
 1519    1518    1520         1       108.460      3.280256E+02     ; H-C-H, prebuilt h1-c3-h1
 1519    1518    1521         1       108.460      3.280256E+02     ; H-C-H, prebuilt h1-c3-h1
 1520    1518    1521         1       108.460      3.280256E+02     ; H-C-H, prebuilt h1-c3-h1
 1524    1522    1587         1       110.370      5.631664E+02     ; C-N-C, prebuilt c2-na-c2
 1524    1522    1613         1       117.200      5.347152E+02     ; C-N-C, prebuilt c2-na-c3
 1587    1522    1613         1       117.200      5.347152E+02     ; C-N-C, prebuilt c2-na-c3
 1524    1523    1525         1       124.970      5.322048E+02     ; C-N-C, prebuilt c2-na-ca
 1524    1523    1586         1       110.370      5.631664E+02     ; C-N-C, prebuilt c2-na-c2
 1525    1523    1586         1       124.970      5.322048E+02     ; C-N-C, prebuilt c2-na-ca
 1522    1524    1523         1       109.330      6.117008E+02     ; N-C-N, prebuilt na-c2-na
 1522    1524    1561         1       124.051      5.000000E+02     ; N-C-C (na-c2-ca) missing and simply guessed
 1523    1524    1561         1       129.358      5.000000E+02     ; N-C-C (na-c2-ca) missing and simply guessed
 1523    1525    1526         1       118.340      5.782288E+02     ; N-C-C, prebuilt ca-ca-na
 1523    1525    1530         1       118.340      5.782288E+02     ; N-C-C, prebuilt ca-ca-na
 1526    1525    1530         1       120.020      5.573088E+02     ; C-C-C, prebuilt ca-ca-ca
 1525    1526    1527         1       120.020      5.573088E+02     ; C-C-C, prebuilt ca-ca-ca
 1525    1526    1592         1       119.880      4.033376E+02     ; C-C-H, prebuilt ca-ca-ha
 1527    1526    1592         1       119.880      4.033376E+02     ; C-C-H, prebuilt ca-ca-ha
 1526    1527    1528         1       120.020      5.573088E+02     ; C-C-C, prebuilt ca-ca-ca
 1526    1527    1593         1       119.880      4.033376E+02     ; C-C-H, prebuilt ca-ca-ha
 1528    1527    1593         1       119.880      4.033376E+02     ; C-C-H, prebuilt ca-ca-ha
 1527    1528    1529         1       120.020      5.573088E+02     ; C-C-C, prebuilt ca-ca-ca
 1527    1528    1531         1       120.190      5.681872E+02     ; C-C-N, prebuilt ca-ca-n
 1529    1528    1531         1       120.190      5.681872E+02     ; C-C-N, prebuilt ca-ca-n
 1528    1529    1530         1       120.020      5.573088E+02     ; C-C-C, prebuilt ca-ca-ca
 1528    1529    1595         1       119.880      4.033376E+02     ; C-C-H, prebuilt ca-ca-ha
 1530    1529    1595         1       119.880      4.033376E+02     ; C-C-H, prebuilt ca-ca-ha
 1525    1530    1529         1       120.020      5.573088E+02     ; C-C-C, prebuilt ca-ca-ca
 1525    1530    1594         1       119.880      4.033376E+02     ; C-C-H, prebuilt ca-ca-ha
 1529    1530    1594         1       119.880      4.033376E+02     ; C-C-H, prebuilt ca-ca-ha
 1528    1531    1532         1       123.710      5.338784E+02     ; C-N-C, prebuilt c-n-ca
 1528    1531    1535         1       123.710      5.338784E+02     ; C-N-C, prebuilt c-n-ca
 1532    1531    1535         1       127.080      5.330416E+02     ; C-N-C, prebuilt c-n-c
 1531    1532    1533         1       115.250      5.665136E+02     ; N-C-C, prebuilt ca-c-n
 1531    1532    1556         1       123.050      6.209056E+02     ; N-C-O, prebuilt n-c-o
 1533    1532    1556         1       122.600      5.748816E+02     ; C-C-O, prebuilt ca-c-o
 1532    1533    1534         1       120.330      5.380624E+02     ; C-C-C, prebuilt c-ca-ca
 1532    1533    1537         1       120.330      5.380624E+02     ; C-C-C, prebuilt c-ca-ca
 1534    1533    1537         1       120.020      5.573088E+02     ; C-C-C, prebuilt ca-ca-ca
 1533    1534    1535         1       120.330      5.380624E+02     ; C-C-C, prebuilt c-ca-ca
 1533    1534    1540         1       120.020      5.573088E+02     ; C-C-C, prebuilt ca-ca-ca
 1535    1534    1540         1       120.330      5.380624E+02     ; C-C-C, prebuilt c-ca-ca
 1531    1535    1534         1       115.250      5.665136E+02     ; N-C-C, prebuilt ca-c-n
 1531    1535    1536         1       123.050      6.209056E+02     ; N-C-O, prebuilt n-c-o
 1534    1535    1536         1       122.600      5.748816E+02     ; C-C-O, prebuilt ca-c-o
 1533    1537    1538         1       120.020      5.573088E+02     ; C-C-C, prebuilt ca-ca-ca
 1533    1537    1596         1       119.880      4.033376E+02     ; C-C-H, prebuilt ca-ca-ha
 1538    1537    1596         1       119.880      4.033376E+02     ; C-C-H, prebuilt ca-ca-ha
 1537    1538    1539         1       120.020      5.573088E+02     ; C-C-C, prebuilt ca-ca-ca
 1537    1538    1547         1       120.770      5.313680E+02     ; C-C-C, prebuilt c3-ca-ca
 1539    1538    1547         1       120.770      5.313680E+02     ; C-C-C, prebuilt c3-ca-ca
 1538    1539    1540         1       120.020      5.573088E+02     ; C-C-C, prebuilt ca-ca-ca
 1538    1539    1597         1       119.880      4.033376E+02     ; C-C-H, prebuilt ca-ca-ha
 1540    1539    1597         1       119.880      4.033376E+02     ; C-C-H, prebuilt ca-ca-ha
 1534    1540    1539         1       120.020      5.573088E+02     ; C-C-C, prebuilt ca-ca-ca
 1534    1540    1598         1       119.880      4.033376E+02     ; C-C-H, prebuilt ca-ca-ha
 1539    1540    1598         1       119.880      4.033376E+02     ; C-C-H, prebuilt ca-ca-ha
 1542    1541    1544         1       120.020      5.573088E+02     ; C-C-C, prebuilt ca-ca-ca
 1542    1541    1547         1       120.770      5.313680E+02     ; C-C-C, prebuilt c3-ca-ca
 1544    1541    1547         1       120.770      5.313680E+02     ; C-C-C, prebuilt c3-ca-ca
 1541    1542    1543         1       120.020      5.573088E+02     ; C-C-C, prebuilt ca-ca-ca
 1541    1542    1600         1       119.880      4.033376E+02     ; C-C-H, prebuilt ca-ca-ha
 1543    1542    1600         1       119.880      4.033376E+02     ; C-C-H, prebuilt ca-ca-ha
 1542    1543    1545         1       120.020      5.573088E+02     ; C-C-C, prebuilt ca-ca-ca
 1542    1543    1557         1       120.330      5.380624E+02     ; C-C-C, prebuilt c-ca-ca
 1545    1543    1557         1       120.330      5.380624E+02     ; C-C-C, prebuilt c-ca-ca
 1541    1544    1546         1       120.020      5.573088E+02     ; C-C-C, prebuilt ca-ca-ca
 1541    1544    1599         1       119.880      4.033376E+02     ; C-C-H, prebuilt ca-ca-ha
 1546    1544    1599         1       119.880      4.033376E+02     ; C-C-H, prebuilt ca-ca-ha
 1543    1545    1546         1       120.020      5.573088E+02     ; C-C-C, prebuilt ca-ca-ca
 1543    1545    1559         1       120.330      5.380624E+02     ; C-C-C, prebuilt c-ca-ca
 1546    1545    1559         1       120.330      5.380624E+02     ; C-C-C, prebuilt c-ca-ca
 1544    1546    1545         1       120.020      5.573088E+02     ; C-C-C, prebuilt ca-ca-ca
 1544    1546    1601         1       119.880      4.033376E+02     ; C-C-H, prebuilt ca-ca-ha
 1545    1546    1601         1       119.880      4.033376E+02     ; C-C-H, prebuilt ca-ca-ha
 1538    1547    1541         1       112.240      5.322048E+02     ; C-C-C, prebuilt ca-c3-ca
 1538    1547    1548         1       112.070      5.280208E+02     ; C-C-C, prebuilt c3-c3-ca
 1538    1547    1552         1       112.070      5.280208E+02     ; C-C-C, prebuilt c3-c3-ca
 1541    1547    1548         1       112.070      5.280208E+02     ; C-C-C, prebuilt c3-c3-ca
 1541    1547    1552         1       112.070      5.280208E+02     ; C-C-C, prebuilt c3-c3-ca
 1548    1547    1552         1       111.510      5.263472E+02     ; C-C-C, prebuilt c3-c3-c3
 1547    1548    1549         1       109.240      5.531248E+02     ; C-C-F, prebuilt c3-c3-f
 1547    1548    1550         1       109.240      5.531248E+02     ; C-C-F, prebuilt c3-c3-f
 1547    1548    1551         1       109.240      5.531248E+02     ; C-C-F, prebuilt c3-c3-f
 1549    1548    1550         1       107.360      5.932912E+02     ; F-C-F, prebuilt f-c3-f
 1549    1548    1551         1       107.360      5.932912E+02     ; F-C-F, prebuilt f-c3-f
 1550    1548    1551         1       107.360      5.932912E+02     ; F-C-F, prebuilt f-c3-f
 1547    1552    1553         1       109.240      5.531248E+02     ; C-C-F, prebuilt c3-c3-f
 1547    1552    1554         1       109.240      5.531248E+02     ; C-C-F, prebuilt c3-c3-f
 1547    1552    1555         1       109.240      5.531248E+02     ; C-C-F, prebuilt c3-c3-f
 1553    1552    1554         1       107.360      5.932912E+02     ; F-C-F, prebuilt f-c3-f
 1553    1552    1555         1       107.360      5.932912E+02     ; F-C-F, prebuilt f-c3-f
 1554    1552    1555         1       107.360      5.932912E+02     ; F-C-F, prebuilt f-c3-f
 1543    1557    1558         1       115.250      5.665136E+02     ; C-C-N, prebuilt ca-c-n
 1543    1557    1602         1       122.600      5.748816E+02     ; C-C-O, prebuilt ca-c-o
 1558    1557    1602         1       123.050      6.209056E+02     ; N-C-O, prebuilt n-c-o
 1557    1558    1559         1       127.080      5.330416E+02     ; C-N-C, prebuilt c-n-c
 1557    1558    1674         1       123.710      5.338784E+02     ; C-N-C, prebuilt c-n-ca
 1559    1558    1674         1       123.710      5.338784E+02     ; C-N-C, prebuilt c-n-ca
 1545    1559    1558         1       115.250      5.665136E+02     ; C-C-N, prebuilt ca-c-n
 1545    1559    1560         1       122.600      5.748816E+02     ; C-C-O, prebuilt ca-c-o
 1558    1559    1560         1       123.050      6.209056E+02     ; N-C-O, prebuilt n-c-o
 1524    1561    1562         1       120.600      5.589824E+02     ; C-C-C, prebuilt c2-ca-ca
 1524    1561    1563         1       120.600      5.589824E+02     ; C-C-C, prebuilt c2-ca-ca
 1562    1561    1563         1       120.020      5.573088E+02     ; C-C-C, prebuilt ca-ca-ca
 1561    1562    1564         1       120.020      5.573088E+02     ; C-C-C, prebuilt ca-ca-ca
 1561    1562    1603         1       119.880      4.033376E+02     ; C-C-H, prebuilt ca-ca-ha
 1564    1562    1603         1       119.880      4.033376E+02     ; C-C-H, prebuilt ca-ca-ha
 1561    1563    1565         1       120.020      5.573088E+02     ; C-C-C, prebuilt ca-ca-ca
 1561    1563    1605         1       119.880      4.033376E+02     ; C-C-H, prebuilt ca-ca-ha
 1565    1563    1605         1       119.880      4.033376E+02     ; C-C-H, prebuilt ca-ca-ha
 1562    1564    1566         1       120.020      5.573088E+02     ; C-C-C, prebuilt ca-ca-ca
 1562    1564    1604         1       119.880      4.033376E+02     ; C-C-H, prebuilt ca-ca-ha
 1566    1564    1604         1       119.880      4.033376E+02     ; C-C-H, prebuilt ca-ca-ha
 1563    1565    1566         1       120.020      5.573088E+02     ; C-C-C, prebuilt ca-ca-ca
 1563    1565    1611         1       119.880      4.033376E+02     ; C-C-H, prebuilt ca-ca-ha
 1566    1565    1611         1       119.880      4.033376E+02     ; C-C-H, prebuilt ca-ca-ha
 1564    1566    1565         1       120.020      5.573088E+02     ; C-C-C, prebuilt ca-ca-ca
 1564    1566    1567         1       120.600      5.589824E+02     ; C-C-C, prebuilt c2-ca-ca
 1565    1566    1567         1       120.600      5.589824E+02     ; C-C-C, prebuilt c2-ca-ca
 1566    1567    1568         1       129.713      5.000000E+02     ; C-C-N (ca-c2-na) missing and simply guessed
 1566    1567    1569         1       123.799      5.000000E+02     ; C-C-N (ca-c2-na) missing and simply guessed
 1568    1567    1569         1       109.330      6.117008E+02     ; N-C-N, prebuilt na-c2-na
 1567    1568    1570         1       110.370      5.631664E+02     ; C-N-C, prebuilt c2-na-c2
 1567    1568    1576         1       124.970      5.322048E+02     ; C-N-C, prebuilt c2-na-ca
 1570    1568    1576         1       124.970      5.322048E+02     ; C-N-C, prebuilt c2-na-ca
 1567    1569    1571         1       110.370      5.631664E+02     ; C-N-C, prebuilt c2-na-c2
 1567    1569    1572         1       117.200      5.347152E+02     ; C-N-C, prebuilt c2-na-c3
 1571    1569    1572         1       117.200      5.347152E+02     ; C-N-C, prebuilt c2-na-c3
 1568    1570    1571         1       121.940      5.782288E+02     ; N-C-C, prebuilt c2-c2-na
 1568    1570    1610         1       112.970      4.250944E+02     ; N-C-H, prebuilt h4-c2-na
 1571    1570    1610         1       122.670      4.133792E+02     ; C-C-H, prebuilt c2-c2-h4
 1569    1571    1570         1       121.940      5.782288E+02     ; N-C-C, prebuilt c2-c2-na
 1569    1571    1582         1       117.200      5.539616E+02     ; N-C-C, prebuilt c3-c2-na
 1570    1571    1582         1       123.630      5.363888E+02     ; C-C-C, prebuilt c2-c2-c3
 1569    1572    1573         1       108.780      4.167264E+02     ; N-C-H, prebuilt h1-c3-na
 1569    1572    1574         1       108.780      4.167264E+02     ; N-C-H, prebuilt h1-c3-na
 1569    1572    1575         1       108.780      4.167264E+02     ; N-C-H, prebuilt h1-c3-na
 1573    1572    1574         1       108.460      3.280256E+02     ; H-C-H, prebuilt h1-c3-h1
 1573    1572    1575         1       108.460      3.280256E+02     ; H-C-H, prebuilt h1-c3-h1
 1574    1572    1575         1       108.460      3.280256E+02     ; H-C-H, prebuilt h1-c3-h1
 1568    1576    1577         1       118.340      5.782288E+02     ; N-C-C, prebuilt ca-ca-na
 1568    1576    1581         1       118.340      5.782288E+02     ; N-C-C, prebuilt ca-ca-na
 1577    1576    1581         1       120.020      5.573088E+02     ; C-C-C, prebuilt ca-ca-ca
 1576    1577    1578         1       120.020      5.573088E+02     ; C-C-C, prebuilt ca-ca-ca
 1576    1577    1607         1       119.880      4.033376E+02     ; C-C-H, prebuilt ca-ca-ha
 1578    1577    1607         1       119.880      4.033376E+02     ; C-C-H, prebuilt ca-ca-ha
 1577    1578    1579         1       120.020      5.573088E+02     ; C-C-C, prebuilt ca-ca-ca
 1577    1578    1606         1       119.880      4.033376E+02     ; C-C-H, prebuilt ca-ca-ha
 1579    1578    1606         1       119.880      4.033376E+02     ; C-C-H, prebuilt ca-ca-ha
 1463    1579    1578         1       120.190      5.681872E+02     ; N-C-C, prebuilt ca-ca-n
 1463    1579    1580         1       120.190      5.681872E+02     ; N-C-C, prebuilt ca-ca-n
 1578    1579    1580         1       120.020      5.573088E+02     ; C-C-C, prebuilt ca-ca-ca
 1579    1580    1581         1       120.020      5.573088E+02     ; C-C-C, prebuilt ca-ca-ca
 1579    1580    1608         1       119.880      4.033376E+02     ; C-C-H, prebuilt ca-ca-ha
 1581    1580    1608         1       119.880      4.033376E+02     ; C-C-H, prebuilt ca-ca-ha
 1576    1581    1580         1       120.020      5.573088E+02     ; C-C-C, prebuilt ca-ca-ca
 1576    1581    1609         1       119.880      4.033376E+02     ; C-C-H, prebuilt ca-ca-ha
 1580    1581    1609         1       119.880      4.033376E+02     ; C-C-H, prebuilt ca-ca-ha
 1571    1582    1583         1       110.760      5.556352E+02     ; C-C-F, prebuilt c2-c3-f
 1571    1582    1584         1       110.760      5.556352E+02     ; C-C-F, prebuilt c2-c3-f
 1571    1582    1585         1       110.760      5.556352E+02     ; C-C-F, prebuilt c2-c3-f
 1583    1582    1584         1       107.360      5.932912E+02     ; F-C-F, prebuilt f-c3-f
 1583    1582    1585         1       107.360      5.932912E+02     ; F-C-F, prebuilt f-c3-f
 1584    1582    1585         1       107.360      5.932912E+02     ; F-C-F, prebuilt f-c3-f
 1523    1586    1587         1       121.940      5.782288E+02     ; N-C-C, prebuilt c2-c2-na
 1523    1586    1591         1       112.970      4.250944E+02     ; N-C-H, prebuilt h4-c2-na
 1587    1586    1591         1       122.670      4.133792E+02     ; C-C-H, prebuilt c2-c2-h4
 1522    1587    1586         1       121.940      5.782288E+02     ; N-C-C, prebuilt c2-c2-na
 1522    1587    1588         1       117.200      5.539616E+02     ; N-C-C, prebuilt c3-c2-na
 1586    1587    1588         1       123.630      5.363888E+02     ; C-C-C, prebuilt c2-c2-c3
 1587    1588    1589         1       110.760      5.556352E+02     ; C-C-F, prebuilt c2-c3-f
 1587    1588    1590         1       110.760      5.556352E+02     ; C-C-F, prebuilt c2-c3-f
 1587    1588    1612         1       110.760      5.556352E+02     ; C-C-F, prebuilt c2-c3-f
 1589    1588    1590         1       107.360      5.932912E+02     ; F-C-F, prebuilt f-c3-f
 1589    1588    1612         1       107.360      5.932912E+02     ; F-C-F, prebuilt f-c3-f
 1590    1588    1612         1       107.360      5.932912E+02     ; F-C-F, prebuilt f-c3-f
 1522    1613    1614         1       108.780      4.167264E+02     ; N-C-H, prebuilt h1-c3-na
 1522    1613    1615         1       108.780      4.167264E+02     ; N-C-H, prebuilt h1-c3-na
 1522    1613    1616         1       108.780      4.167264E+02     ; N-C-H, prebuilt h1-c3-na
 1614    1613    1615         1       108.460      3.280256E+02     ; H-C-H, prebuilt h1-c3-h1
 1614    1613    1616         1       108.460      3.280256E+02     ; H-C-H, prebuilt h1-c3-h1
 1615    1613    1616         1       108.460      3.280256E+02     ; H-C-H, prebuilt h1-c3-h1
 1619    1617    1682         1       110.370      5.631664E+02     ; C-N-C, prebuilt c2-na-c2
 1619    1617    1708         1       117.200      5.347152E+02     ; C-N-C, prebuilt c2-na-c3
 1682    1617    1708         1       117.200      5.347152E+02     ; C-N-C, prebuilt c2-na-c3
 1619    1618    1620         1       124.970      5.322048E+02     ; C-N-C, prebuilt c2-na-ca
 1619    1618    1681         1       110.370      5.631664E+02     ; C-N-C, prebuilt c2-na-c2
 1620    1618    1681         1       124.970      5.322048E+02     ; C-N-C, prebuilt c2-na-ca
 1617    1619    1618         1       109.330      6.117008E+02     ; N-C-N, prebuilt na-c2-na
 1617    1619    1656         1       124.902      5.000000E+02     ; N-C-C (na-c2-ca) missing and simply guessed
 1618    1619    1656         1       128.707      5.000000E+02     ; N-C-C (na-c2-ca) missing and simply guessed
 1618    1620    1621         1       118.340      5.782288E+02     ; N-C-C, prebuilt ca-ca-na
 1618    1620    1625         1       118.340      5.782288E+02     ; N-C-C, prebuilt ca-ca-na
 1621    1620    1625         1       120.020      5.573088E+02     ; C-C-C, prebuilt ca-ca-ca
 1620    1621    1622         1       120.020      5.573088E+02     ; C-C-C, prebuilt ca-ca-ca
 1620    1621    1687         1       119.880      4.033376E+02     ; C-C-H, prebuilt ca-ca-ha
 1622    1621    1687         1       119.880      4.033376E+02     ; C-C-H, prebuilt ca-ca-ha
 1621    1622    1623         1       120.020      5.573088E+02     ; C-C-C, prebuilt ca-ca-ca
 1621    1622    1688         1       119.880      4.033376E+02     ; C-C-H, prebuilt ca-ca-ha
 1623    1622    1688         1       119.880      4.033376E+02     ; C-C-H, prebuilt ca-ca-ha
 1622    1623    1624         1       120.020      5.573088E+02     ; C-C-C, prebuilt ca-ca-ca
 1622    1623    1626         1       120.190      5.681872E+02     ; C-C-N, prebuilt ca-ca-n
 1624    1623    1626         1       120.190      5.681872E+02     ; C-C-N, prebuilt ca-ca-n
 1623    1624    1625         1       120.020      5.573088E+02     ; C-C-C, prebuilt ca-ca-ca
 1623    1624    1690         1       119.880      4.033376E+02     ; C-C-H, prebuilt ca-ca-ha
 1625    1624    1690         1       119.880      4.033376E+02     ; C-C-H, prebuilt ca-ca-ha
 1620    1625    1624         1       120.020      5.573088E+02     ; C-C-C, prebuilt ca-ca-ca
 1620    1625    1689         1       119.880      4.033376E+02     ; C-C-H, prebuilt ca-ca-ha
 1624    1625    1689         1       119.880      4.033376E+02     ; C-C-H, prebuilt ca-ca-ha
 1623    1626    1627         1       123.710      5.338784E+02     ; C-N-C, prebuilt c-n-ca
 1623    1626    1630         1       123.710      5.338784E+02     ; C-N-C, prebuilt c-n-ca
 1627    1626    1630         1       127.080      5.330416E+02     ; C-N-C, prebuilt c-n-c
 1626    1627    1628         1       115.250      5.665136E+02     ; N-C-C, prebuilt ca-c-n
 1626    1627    1651         1       123.050      6.209056E+02     ; N-C-O, prebuilt n-c-o
 1628    1627    1651         1       122.600      5.748816E+02     ; C-C-O, prebuilt ca-c-o
 1627    1628    1629         1       120.330      5.380624E+02     ; C-C-C, prebuilt c-ca-ca
 1627    1628    1632         1       120.330      5.380624E+02     ; C-C-C, prebuilt c-ca-ca
 1629    1628    1632         1       120.020      5.573088E+02     ; C-C-C, prebuilt ca-ca-ca
 1628    1629    1630         1       120.330      5.380624E+02     ; C-C-C, prebuilt c-ca-ca
 1628    1629    1635         1       120.020      5.573088E+02     ; C-C-C, prebuilt ca-ca-ca
 1630    1629    1635         1       120.330      5.380624E+02     ; C-C-C, prebuilt c-ca-ca
 1626    1630    1629         1       115.250      5.665136E+02     ; N-C-C, prebuilt ca-c-n
 1626    1630    1631         1       123.050      6.209056E+02     ; N-C-O, prebuilt n-c-o
 1629    1630    1631         1       122.600      5.748816E+02     ; C-C-O, prebuilt ca-c-o
 1628    1632    1633         1       120.020      5.573088E+02     ; C-C-C, prebuilt ca-ca-ca
 1628    1632    1691         1       119.880      4.033376E+02     ; C-C-H, prebuilt ca-ca-ha
 1633    1632    1691         1       119.880      4.033376E+02     ; C-C-H, prebuilt ca-ca-ha
 1632    1633    1634         1       120.020      5.573088E+02     ; C-C-C, prebuilt ca-ca-ca
 1632    1633    1642         1       120.770      5.313680E+02     ; C-C-C, prebuilt c3-ca-ca
 1634    1633    1642         1       120.770      5.313680E+02     ; C-C-C, prebuilt c3-ca-ca
 1633    1634    1635         1       120.020      5.573088E+02     ; C-C-C, prebuilt ca-ca-ca
 1633    1634    1692         1       119.880      4.033376E+02     ; C-C-H, prebuilt ca-ca-ha
 1635    1634    1692         1       119.880      4.033376E+02     ; C-C-H, prebuilt ca-ca-ha
 1629    1635    1634         1       120.020      5.573088E+02     ; C-C-C, prebuilt ca-ca-ca
 1629    1635    1693         1       119.880      4.033376E+02     ; C-C-H, prebuilt ca-ca-ha
 1634    1635    1693         1       119.880      4.033376E+02     ; C-C-H, prebuilt ca-ca-ha
 1637    1636    1639         1       120.020      5.573088E+02     ; C-C-C, prebuilt ca-ca-ca
 1637    1636    1642         1       120.770      5.313680E+02     ; C-C-C, prebuilt c3-ca-ca
 1639    1636    1642         1       120.770      5.313680E+02     ; C-C-C, prebuilt c3-ca-ca
 1636    1637    1638         1       120.020      5.573088E+02     ; C-C-C, prebuilt ca-ca-ca
 1636    1637    1695         1       119.880      4.033376E+02     ; C-C-H, prebuilt ca-ca-ha
 1638    1637    1695         1       119.880      4.033376E+02     ; C-C-H, prebuilt ca-ca-ha
 1637    1638    1640         1       120.020      5.573088E+02     ; C-C-C, prebuilt ca-ca-ca
 1637    1638    1652         1       120.330      5.380624E+02     ; C-C-C, prebuilt c-ca-ca
 1640    1638    1652         1       120.330      5.380624E+02     ; C-C-C, prebuilt c-ca-ca
 1636    1639    1641         1       120.020      5.573088E+02     ; C-C-C, prebuilt ca-ca-ca
 1636    1639    1694         1       119.880      4.033376E+02     ; C-C-H, prebuilt ca-ca-ha
 1641    1639    1694         1       119.880      4.033376E+02     ; C-C-H, prebuilt ca-ca-ha
 1638    1640    1641         1       120.020      5.573088E+02     ; C-C-C, prebuilt ca-ca-ca
 1638    1640    1654         1       120.330      5.380624E+02     ; C-C-C, prebuilt c-ca-ca
 1641    1640    1654         1       120.330      5.380624E+02     ; C-C-C, prebuilt c-ca-ca
 1639    1641    1640         1       120.020      5.573088E+02     ; C-C-C, prebuilt ca-ca-ca
 1639    1641    1696         1       119.880      4.033376E+02     ; C-C-H, prebuilt ca-ca-ha
 1640    1641    1696         1       119.880      4.033376E+02     ; C-C-H, prebuilt ca-ca-ha
 1633    1642    1636         1       112.240      5.322048E+02     ; C-C-C, prebuilt ca-c3-ca
 1633    1642    1643         1       112.070      5.280208E+02     ; C-C-C, prebuilt c3-c3-ca
 1633    1642    1647         1       112.070      5.280208E+02     ; C-C-C, prebuilt c3-c3-ca
 1636    1642    1643         1       112.070      5.280208E+02     ; C-C-C, prebuilt c3-c3-ca
 1636    1642    1647         1       112.070      5.280208E+02     ; C-C-C, prebuilt c3-c3-ca
 1643    1642    1647         1       111.510      5.263472E+02     ; C-C-C, prebuilt c3-c3-c3
 1642    1643    1644         1       109.240      5.531248E+02     ; C-C-F, prebuilt c3-c3-f
 1642    1643    1645         1       109.240      5.531248E+02     ; C-C-F, prebuilt c3-c3-f
 1642    1643    1646         1       109.240      5.531248E+02     ; C-C-F, prebuilt c3-c3-f
 1644    1643    1645         1       107.360      5.932912E+02     ; F-C-F, prebuilt f-c3-f
 1644    1643    1646         1       107.360      5.932912E+02     ; F-C-F, prebuilt f-c3-f
 1645    1643    1646         1       107.360      5.932912E+02     ; F-C-F, prebuilt f-c3-f
 1642    1647    1648         1       109.240      5.531248E+02     ; C-C-F, prebuilt c3-c3-f
 1642    1647    1649         1       109.240      5.531248E+02     ; C-C-F, prebuilt c3-c3-f
 1642    1647    1650         1       109.240      5.531248E+02     ; C-C-F, prebuilt c3-c3-f
 1648    1647    1649         1       107.360      5.932912E+02     ; F-C-F, prebuilt f-c3-f
 1648    1647    1650         1       107.360      5.932912E+02     ; F-C-F, prebuilt f-c3-f
 1649    1647    1650         1       107.360      5.932912E+02     ; F-C-F, prebuilt f-c3-f
 1638    1652    1653         1       115.250      5.665136E+02     ; C-C-N, prebuilt ca-c-n
 1638    1652    1697         1       122.600      5.748816E+02     ; C-C-O, prebuilt ca-c-o
 1653    1652    1697         1       123.050      6.209056E+02     ; N-C-O, prebuilt n-c-o
 1652    1653    1654         1       127.080      5.330416E+02     ; C-N-C, prebuilt c-n-c
 1652    1653    1769         1       123.710      5.338784E+02     ; C-N-C, prebuilt c-n-ca
 1654    1653    1769         1       123.710      5.338784E+02     ; C-N-C, prebuilt c-n-ca
 1640    1654    1653         1       115.250      5.665136E+02     ; C-C-N, prebuilt ca-c-n
 1640    1654    1655         1       122.600      5.748816E+02     ; C-C-O, prebuilt ca-c-o
 1653    1654    1655         1       123.050      6.209056E+02     ; N-C-O, prebuilt n-c-o
 1619    1656    1657         1       120.600      5.589824E+02     ; C-C-C, prebuilt c2-ca-ca
 1619    1656    1658         1       120.600      5.589824E+02     ; C-C-C, prebuilt c2-ca-ca
 1657    1656    1658         1       120.020      5.573088E+02     ; C-C-C, prebuilt ca-ca-ca
 1656    1657    1659         1       120.020      5.573088E+02     ; C-C-C, prebuilt ca-ca-ca
 1656    1657    1698         1       119.880      4.033376E+02     ; C-C-H, prebuilt ca-ca-ha
 1659    1657    1698         1       119.880      4.033376E+02     ; C-C-H, prebuilt ca-ca-ha
 1656    1658    1660         1       120.020      5.573088E+02     ; C-C-C, prebuilt ca-ca-ca
 1656    1658    1700         1       119.880      4.033376E+02     ; C-C-H, prebuilt ca-ca-ha
 1660    1658    1700         1       119.880      4.033376E+02     ; C-C-H, prebuilt ca-ca-ha
 1657    1659    1661         1       120.020      5.573088E+02     ; C-C-C, prebuilt ca-ca-ca
 1657    1659    1699         1       119.880      4.033376E+02     ; C-C-H, prebuilt ca-ca-ha
 1661    1659    1699         1       119.880      4.033376E+02     ; C-C-H, prebuilt ca-ca-ha
 1658    1660    1661         1       120.020      5.573088E+02     ; C-C-C, prebuilt ca-ca-ca
 1658    1660    1706         1       119.880      4.033376E+02     ; C-C-H, prebuilt ca-ca-ha
 1661    1660    1706         1       119.880      4.033376E+02     ; C-C-H, prebuilt ca-ca-ha
 1659    1661    1660         1       120.020      5.573088E+02     ; C-C-C, prebuilt ca-ca-ca
 1659    1661    1662         1       120.600      5.589824E+02     ; C-C-C, prebuilt c2-ca-ca
 1660    1661    1662         1       120.600      5.589824E+02     ; C-C-C, prebuilt c2-ca-ca
 1661    1662    1663         1       128.346      5.000000E+02     ; C-C-N (ca-c2-na) missing and simply guessed
 1661    1662    1664         1       125.709      5.000000E+02     ; C-C-N (ca-c2-na) missing and simply guessed
 1663    1662    1664         1       109.330      6.117008E+02     ; N-C-N, prebuilt na-c2-na
 1662    1663    1665         1       110.370      5.631664E+02     ; C-N-C, prebuilt c2-na-c2
 1662    1663    1671         1       124.970      5.322048E+02     ; C-N-C, prebuilt c2-na-ca
 1665    1663    1671         1       124.970      5.322048E+02     ; C-N-C, prebuilt c2-na-ca
 1662    1664    1666         1       110.370      5.631664E+02     ; C-N-C, prebuilt c2-na-c2
 1662    1664    1667         1       117.200      5.347152E+02     ; C-N-C, prebuilt c2-na-c3
 1666    1664    1667         1       117.200      5.347152E+02     ; C-N-C, prebuilt c2-na-c3
 1663    1665    1666         1       121.940      5.782288E+02     ; N-C-C, prebuilt c2-c2-na
 1663    1665    1705         1       112.970      4.250944E+02     ; N-C-H, prebuilt h4-c2-na
 1666    1665    1705         1       122.670      4.133792E+02     ; C-C-H, prebuilt c2-c2-h4
 1664    1666    1665         1       121.940      5.782288E+02     ; N-C-C, prebuilt c2-c2-na
 1664    1666    1677         1       117.200      5.539616E+02     ; N-C-C, prebuilt c3-c2-na
 1665    1666    1677         1       123.630      5.363888E+02     ; C-C-C, prebuilt c2-c2-c3
 1664    1667    1668         1       108.780      4.167264E+02     ; N-C-H, prebuilt h1-c3-na
 1664    1667    1669         1       108.780      4.167264E+02     ; N-C-H, prebuilt h1-c3-na
 1664    1667    1670         1       108.780      4.167264E+02     ; N-C-H, prebuilt h1-c3-na
 1668    1667    1669         1       108.460      3.280256E+02     ; H-C-H, prebuilt h1-c3-h1
 1668    1667    1670         1       108.460      3.280256E+02     ; H-C-H, prebuilt h1-c3-h1
 1669    1667    1670         1       108.460      3.280256E+02     ; H-C-H, prebuilt h1-c3-h1
 1663    1671    1672         1       118.340      5.782288E+02     ; N-C-C, prebuilt ca-ca-na
 1663    1671    1676         1       118.340      5.782288E+02     ; N-C-C, prebuilt ca-ca-na
 1672    1671    1676         1       120.020      5.573088E+02     ; C-C-C, prebuilt ca-ca-ca
 1671    1672    1673         1       120.020      5.573088E+02     ; C-C-C, prebuilt ca-ca-ca
 1671    1672    1702         1       119.880      4.033376E+02     ; C-C-H, prebuilt ca-ca-ha
 1673    1672    1702         1       119.880      4.033376E+02     ; C-C-H, prebuilt ca-ca-ha
 1672    1673    1674         1       120.020      5.573088E+02     ; C-C-C, prebuilt ca-ca-ca
 1672    1673    1701         1       119.880      4.033376E+02     ; C-C-H, prebuilt ca-ca-ha
 1674    1673    1701         1       119.880      4.033376E+02     ; C-C-H, prebuilt ca-ca-ha
 1558    1674    1673         1       120.190      5.681872E+02     ; N-C-C, prebuilt ca-ca-n
 1558    1674    1675         1       120.190      5.681872E+02     ; N-C-C, prebuilt ca-ca-n
 1673    1674    1675         1       120.020      5.573088E+02     ; C-C-C, prebuilt ca-ca-ca
 1674    1675    1676         1       120.020      5.573088E+02     ; C-C-C, prebuilt ca-ca-ca
 1674    1675    1703         1       119.880      4.033376E+02     ; C-C-H, prebuilt ca-ca-ha
 1676    1675    1703         1       119.880      4.033376E+02     ; C-C-H, prebuilt ca-ca-ha
 1671    1676    1675         1       120.020      5.573088E+02     ; C-C-C, prebuilt ca-ca-ca
 1671    1676    1704         1       119.880      4.033376E+02     ; C-C-H, prebuilt ca-ca-ha
 1675    1676    1704         1       119.880      4.033376E+02     ; C-C-H, prebuilt ca-ca-ha
 1666    1677    1678         1       110.760      5.556352E+02     ; C-C-F, prebuilt c2-c3-f
 1666    1677    1679         1       110.760      5.556352E+02     ; C-C-F, prebuilt c2-c3-f
 1666    1677    1680         1       110.760      5.556352E+02     ; C-C-F, prebuilt c2-c3-f
 1678    1677    1679         1       107.360      5.932912E+02     ; F-C-F, prebuilt f-c3-f
 1678    1677    1680         1       107.360      5.932912E+02     ; F-C-F, prebuilt f-c3-f
 1679    1677    1680         1       107.360      5.932912E+02     ; F-C-F, prebuilt f-c3-f
 1618    1681    1682         1       121.940      5.782288E+02     ; N-C-C, prebuilt c2-c2-na
 1618    1681    1686         1       112.970      4.250944E+02     ; N-C-H, prebuilt h4-c2-na
 1682    1681    1686         1       122.670      4.133792E+02     ; C-C-H, prebuilt c2-c2-h4
 1617    1682    1681         1       121.940      5.782288E+02     ; N-C-C, prebuilt c2-c2-na
 1617    1682    1683         1       117.200      5.539616E+02     ; N-C-C, prebuilt c3-c2-na
 1681    1682    1683         1       123.630      5.363888E+02     ; C-C-C, prebuilt c2-c2-c3
 1682    1683    1684         1       110.760      5.556352E+02     ; C-C-F, prebuilt c2-c3-f
 1682    1683    1685         1       110.760      5.556352E+02     ; C-C-F, prebuilt c2-c3-f
 1682    1683    1707         1       110.760      5.556352E+02     ; C-C-F, prebuilt c2-c3-f
 1684    1683    1685         1       107.360      5.932912E+02     ; F-C-F, prebuilt f-c3-f
 1684    1683    1707         1       107.360      5.932912E+02     ; F-C-F, prebuilt f-c3-f
 1685    1683    1707         1       107.360      5.932912E+02     ; F-C-F, prebuilt f-c3-f
 1617    1708    1709         1       108.780      4.167264E+02     ; N-C-H, prebuilt h1-c3-na
 1617    1708    1710         1       108.780      4.167264E+02     ; N-C-H, prebuilt h1-c3-na
 1617    1708    1711         1       108.780      4.167264E+02     ; N-C-H, prebuilt h1-c3-na
 1709    1708    1710         1       108.460      3.280256E+02     ; H-C-H, prebuilt h1-c3-h1
 1709    1708    1711         1       108.460      3.280256E+02     ; H-C-H, prebuilt h1-c3-h1
 1710    1708    1711         1       108.460      3.280256E+02     ; H-C-H, prebuilt h1-c3-h1
 1714    1712    1777         1       110.370      5.631664E+02     ; C-N-C, prebuilt c2-na-c2
 1714    1712    1803         1       117.200      5.347152E+02     ; C-N-C, prebuilt c2-na-c3
 1777    1712    1803         1       117.200      5.347152E+02     ; C-N-C, prebuilt c2-na-c3
 1714    1713    1715         1       124.970      5.322048E+02     ; C-N-C, prebuilt c2-na-ca
 1714    1713    1776         1       110.370      5.631664E+02     ; C-N-C, prebuilt c2-na-c2
 1715    1713    1776         1       124.970      5.322048E+02     ; C-N-C, prebuilt c2-na-ca
 1712    1714    1713         1       109.330      6.117008E+02     ; N-C-N, prebuilt na-c2-na
 1712    1714    1751         1       124.859      5.000000E+02     ; N-C-C (na-c2-ca) missing and simply guessed
 1713    1714    1751         1       128.494      5.000000E+02     ; N-C-C (na-c2-ca) missing and simply guessed
 1713    1715    1716         1       118.340      5.782288E+02     ; N-C-C, prebuilt ca-ca-na
 1713    1715    1720         1       118.340      5.782288E+02     ; N-C-C, prebuilt ca-ca-na
 1716    1715    1720         1       120.020      5.573088E+02     ; C-C-C, prebuilt ca-ca-ca
 1715    1716    1717         1       120.020      5.573088E+02     ; C-C-C, prebuilt ca-ca-ca
 1715    1716    1782         1       119.880      4.033376E+02     ; C-C-H, prebuilt ca-ca-ha
 1717    1716    1782         1       119.880      4.033376E+02     ; C-C-H, prebuilt ca-ca-ha
 1716    1717    1718         1       120.020      5.573088E+02     ; C-C-C, prebuilt ca-ca-ca
 1716    1717    1783         1       119.880      4.033376E+02     ; C-C-H, prebuilt ca-ca-ha
 1718    1717    1783         1       119.880      4.033376E+02     ; C-C-H, prebuilt ca-ca-ha
 1717    1718    1719         1       120.020      5.573088E+02     ; C-C-C, prebuilt ca-ca-ca
 1717    1718    1721         1       120.190      5.681872E+02     ; C-C-N, prebuilt ca-ca-n
 1719    1718    1721         1       120.190      5.681872E+02     ; C-C-N, prebuilt ca-ca-n
 1718    1719    1720         1       120.020      5.573088E+02     ; C-C-C, prebuilt ca-ca-ca
 1718    1719    1785         1       119.880      4.033376E+02     ; C-C-H, prebuilt ca-ca-ha
 1720    1719    1785         1       119.880      4.033376E+02     ; C-C-H, prebuilt ca-ca-ha
 1715    1720    1719         1       120.020      5.573088E+02     ; C-C-C, prebuilt ca-ca-ca
 1715    1720    1784         1       119.880      4.033376E+02     ; C-C-H, prebuilt ca-ca-ha
 1719    1720    1784         1       119.880      4.033376E+02     ; C-C-H, prebuilt ca-ca-ha
 1718    1721    1722         1       123.710      5.338784E+02     ; C-N-C, prebuilt c-n-ca
 1718    1721    1725         1       123.710      5.338784E+02     ; C-N-C, prebuilt c-n-ca
 1722    1721    1725         1       127.080      5.330416E+02     ; C-N-C, prebuilt c-n-c
 1721    1722    1723         1       115.250      5.665136E+02     ; N-C-C, prebuilt ca-c-n
 1721    1722    1746         1       123.050      6.209056E+02     ; N-C-O, prebuilt n-c-o
 1723    1722    1746         1       122.600      5.748816E+02     ; C-C-O, prebuilt ca-c-o
 1722    1723    1724         1       120.330      5.380624E+02     ; C-C-C, prebuilt c-ca-ca
 1722    1723    1727         1       120.330      5.380624E+02     ; C-C-C, prebuilt c-ca-ca
 1724    1723    1727         1       120.020      5.573088E+02     ; C-C-C, prebuilt ca-ca-ca
 1723    1724    1725         1       120.330      5.380624E+02     ; C-C-C, prebuilt c-ca-ca
 1723    1724    1730         1       120.020      5.573088E+02     ; C-C-C, prebuilt ca-ca-ca
 1725    1724    1730         1       120.330      5.380624E+02     ; C-C-C, prebuilt c-ca-ca
 1721    1725    1724         1       115.250      5.665136E+02     ; N-C-C, prebuilt ca-c-n
 1721    1725    1726         1       123.050      6.209056E+02     ; N-C-O, prebuilt n-c-o
 1724    1725    1726         1       122.600      5.748816E+02     ; C-C-O, prebuilt ca-c-o
 1723    1727    1728         1       120.020      5.573088E+02     ; C-C-C, prebuilt ca-ca-ca
 1723    1727    1786         1       119.880      4.033376E+02     ; C-C-H, prebuilt ca-ca-ha
 1728    1727    1786         1       119.880      4.033376E+02     ; C-C-H, prebuilt ca-ca-ha
 1727    1728    1729         1       120.020      5.573088E+02     ; C-C-C, prebuilt ca-ca-ca
 1727    1728    1737         1       120.770      5.313680E+02     ; C-C-C, prebuilt c3-ca-ca
 1729    1728    1737         1       120.770      5.313680E+02     ; C-C-C, prebuilt c3-ca-ca
 1728    1729    1730         1       120.020      5.573088E+02     ; C-C-C, prebuilt ca-ca-ca
 1728    1729    1787         1       119.880      4.033376E+02     ; C-C-H, prebuilt ca-ca-ha
 1730    1729    1787         1       119.880      4.033376E+02     ; C-C-H, prebuilt ca-ca-ha
 1724    1730    1729         1       120.020      5.573088E+02     ; C-C-C, prebuilt ca-ca-ca
 1724    1730    1788         1       119.880      4.033376E+02     ; C-C-H, prebuilt ca-ca-ha
 1729    1730    1788         1       119.880      4.033376E+02     ; C-C-H, prebuilt ca-ca-ha
 1732    1731    1734         1       120.020      5.573088E+02     ; C-C-C, prebuilt ca-ca-ca
 1732    1731    1737         1       120.770      5.313680E+02     ; C-C-C, prebuilt c3-ca-ca
 1734    1731    1737         1       120.770      5.313680E+02     ; C-C-C, prebuilt c3-ca-ca
 1731    1732    1733         1       120.020      5.573088E+02     ; C-C-C, prebuilt ca-ca-ca
 1731    1732    1790         1       119.880      4.033376E+02     ; C-C-H, prebuilt ca-ca-ha
 1733    1732    1790         1       119.880      4.033376E+02     ; C-C-H, prebuilt ca-ca-ha
 1732    1733    1735         1       120.020      5.573088E+02     ; C-C-C, prebuilt ca-ca-ca
 1732    1733    1747         1       120.330      5.380624E+02     ; C-C-C, prebuilt c-ca-ca
 1735    1733    1747         1       120.330      5.380624E+02     ; C-C-C, prebuilt c-ca-ca
 1731    1734    1736         1       120.020      5.573088E+02     ; C-C-C, prebuilt ca-ca-ca
 1731    1734    1789         1       119.880      4.033376E+02     ; C-C-H, prebuilt ca-ca-ha
 1736    1734    1789         1       119.880      4.033376E+02     ; C-C-H, prebuilt ca-ca-ha
 1733    1735    1736         1       120.020      5.573088E+02     ; C-C-C, prebuilt ca-ca-ca
 1733    1735    1749         1       120.330      5.380624E+02     ; C-C-C, prebuilt c-ca-ca
 1736    1735    1749         1       120.330      5.380624E+02     ; C-C-C, prebuilt c-ca-ca
 1734    1736    1735         1       120.020      5.573088E+02     ; C-C-C, prebuilt ca-ca-ca
 1734    1736    1791         1       119.880      4.033376E+02     ; C-C-H, prebuilt ca-ca-ha
 1735    1736    1791         1       119.880      4.033376E+02     ; C-C-H, prebuilt ca-ca-ha
 1728    1737    1731         1       112.240      5.322048E+02     ; C-C-C, prebuilt ca-c3-ca
 1728    1737    1738         1       112.070      5.280208E+02     ; C-C-C, prebuilt c3-c3-ca
 1728    1737    1742         1       112.070      5.280208E+02     ; C-C-C, prebuilt c3-c3-ca
 1731    1737    1738         1       112.070      5.280208E+02     ; C-C-C, prebuilt c3-c3-ca
 1731    1737    1742         1       112.070      5.280208E+02     ; C-C-C, prebuilt c3-c3-ca
 1738    1737    1742         1       111.510      5.263472E+02     ; C-C-C, prebuilt c3-c3-c3
 1737    1738    1739         1       109.240      5.531248E+02     ; C-C-F, prebuilt c3-c3-f
 1737    1738    1740         1       109.240      5.531248E+02     ; C-C-F, prebuilt c3-c3-f
 1737    1738    1741         1       109.240      5.531248E+02     ; C-C-F, prebuilt c3-c3-f
 1739    1738    1740         1       107.360      5.932912E+02     ; F-C-F, prebuilt f-c3-f
 1739    1738    1741         1       107.360      5.932912E+02     ; F-C-F, prebuilt f-c3-f
 1740    1738    1741         1       107.360      5.932912E+02     ; F-C-F, prebuilt f-c3-f
 1737    1742    1743         1       109.240      5.531248E+02     ; C-C-F, prebuilt c3-c3-f
 1737    1742    1744         1       109.240      5.531248E+02     ; C-C-F, prebuilt c3-c3-f
 1737    1742    1745         1       109.240      5.531248E+02     ; C-C-F, prebuilt c3-c3-f
 1743    1742    1744         1       107.360      5.932912E+02     ; F-C-F, prebuilt f-c3-f
 1743    1742    1745         1       107.360      5.932912E+02     ; F-C-F, prebuilt f-c3-f
 1744    1742    1745         1       107.360      5.932912E+02     ; F-C-F, prebuilt f-c3-f
 1733    1747    1748         1       115.250      5.665136E+02     ; C-C-N, prebuilt ca-c-n
 1733    1747    1792         1       122.600      5.748816E+02     ; C-C-O, prebuilt ca-c-o
 1748    1747    1792         1       123.050      6.209056E+02     ; N-C-O, prebuilt n-c-o
 1747    1748    1749         1       127.080      5.330416E+02     ; C-N-C, prebuilt c-n-c
 1747    1748    1864         1       123.710      5.338784E+02     ; C-N-C, prebuilt c-n-ca
 1749    1748    1864         1       123.710      5.338784E+02     ; C-N-C, prebuilt c-n-ca
 1735    1749    1748         1       115.250      5.665136E+02     ; C-C-N, prebuilt ca-c-n
 1735    1749    1750         1       122.600      5.748816E+02     ; C-C-O, prebuilt ca-c-o
 1748    1749    1750         1       123.050      6.209056E+02     ; N-C-O, prebuilt n-c-o
 1714    1751    1752         1       120.600      5.589824E+02     ; C-C-C, prebuilt c2-ca-ca
 1714    1751    1753         1       120.600      5.589824E+02     ; C-C-C, prebuilt c2-ca-ca
 1752    1751    1753         1       120.020      5.573088E+02     ; C-C-C, prebuilt ca-ca-ca
 1751    1752    1754         1       120.020      5.573088E+02     ; C-C-C, prebuilt ca-ca-ca
 1751    1752    1793         1       119.880      4.033376E+02     ; C-C-H, prebuilt ca-ca-ha
 1754    1752    1793         1       119.880      4.033376E+02     ; C-C-H, prebuilt ca-ca-ha
 1751    1753    1755         1       120.020      5.573088E+02     ; C-C-C, prebuilt ca-ca-ca
 1751    1753    1795         1       119.880      4.033376E+02     ; C-C-H, prebuilt ca-ca-ha
 1755    1753    1795         1       119.880      4.033376E+02     ; C-C-H, prebuilt ca-ca-ha
 1752    1754    1756         1       120.020      5.573088E+02     ; C-C-C, prebuilt ca-ca-ca
 1752    1754    1794         1       119.880      4.033376E+02     ; C-C-H, prebuilt ca-ca-ha
 1756    1754    1794         1       119.880      4.033376E+02     ; C-C-H, prebuilt ca-ca-ha
 1753    1755    1756         1       120.020      5.573088E+02     ; C-C-C, prebuilt ca-ca-ca
 1753    1755    1801         1       119.880      4.033376E+02     ; C-C-H, prebuilt ca-ca-ha
 1756    1755    1801         1       119.880      4.033376E+02     ; C-C-H, prebuilt ca-ca-ha
 1754    1756    1755         1       120.020      5.573088E+02     ; C-C-C, prebuilt ca-ca-ca
 1754    1756    1757         1       120.600      5.589824E+02     ; C-C-C, prebuilt c2-ca-ca
 1755    1756    1757         1       120.600      5.589824E+02     ; C-C-C, prebuilt c2-ca-ca
 1756    1757    1758         1       129.745      5.000000E+02     ; C-C-N (ca-c2-na) missing and simply guessed
 1756    1757    1759         1       124.434      5.000000E+02     ; C-C-N (ca-c2-na) missing and simply guessed
 1758    1757    1759         1       109.330      6.117008E+02     ; N-C-N, prebuilt na-c2-na
 1757    1758    1760         1       110.370      5.631664E+02     ; C-N-C, prebuilt c2-na-c2
 1757    1758    1766         1       124.970      5.322048E+02     ; C-N-C, prebuilt c2-na-ca
 1760    1758    1766         1       124.970      5.322048E+02     ; C-N-C, prebuilt c2-na-ca
 1757    1759    1761         1       110.370      5.631664E+02     ; C-N-C, prebuilt c2-na-c2
 1757    1759    1762         1       117.200      5.347152E+02     ; C-N-C, prebuilt c2-na-c3
 1761    1759    1762         1       117.200      5.347152E+02     ; C-N-C, prebuilt c2-na-c3
 1758    1760    1761         1       121.940      5.782288E+02     ; N-C-C, prebuilt c2-c2-na
 1758    1760    1800         1       112.970      4.250944E+02     ; N-C-H, prebuilt h4-c2-na
 1761    1760    1800         1       122.670      4.133792E+02     ; C-C-H, prebuilt c2-c2-h4
 1759    1761    1760         1       121.940      5.782288E+02     ; N-C-C, prebuilt c2-c2-na
 1759    1761    1772         1       117.200      5.539616E+02     ; N-C-C, prebuilt c3-c2-na
 1760    1761    1772         1       123.630      5.363888E+02     ; C-C-C, prebuilt c2-c2-c3
 1759    1762    1763         1       108.780      4.167264E+02     ; N-C-H, prebuilt h1-c3-na
 1759    1762    1764         1       108.780      4.167264E+02     ; N-C-H, prebuilt h1-c3-na
 1759    1762    1765         1       108.780      4.167264E+02     ; N-C-H, prebuilt h1-c3-na
 1763    1762    1764         1       108.460      3.280256E+02     ; H-C-H, prebuilt h1-c3-h1
 1763    1762    1765         1       108.460      3.280256E+02     ; H-C-H, prebuilt h1-c3-h1
 1764    1762    1765         1       108.460      3.280256E+02     ; H-C-H, prebuilt h1-c3-h1
 1758    1766    1767         1       118.340      5.782288E+02     ; N-C-C, prebuilt ca-ca-na
 1758    1766    1771         1       118.340      5.782288E+02     ; N-C-C, prebuilt ca-ca-na
 1767    1766    1771         1       120.020      5.573088E+02     ; C-C-C, prebuilt ca-ca-ca
 1766    1767    1768         1       120.020      5.573088E+02     ; C-C-C, prebuilt ca-ca-ca
 1766    1767    1797         1       119.880      4.033376E+02     ; C-C-H, prebuilt ca-ca-ha
 1768    1767    1797         1       119.880      4.033376E+02     ; C-C-H, prebuilt ca-ca-ha
 1767    1768    1769         1       120.020      5.573088E+02     ; C-C-C, prebuilt ca-ca-ca
 1767    1768    1796         1       119.880      4.033376E+02     ; C-C-H, prebuilt ca-ca-ha
 1769    1768    1796         1       119.880      4.033376E+02     ; C-C-H, prebuilt ca-ca-ha
 1653    1769    1768         1       120.190      5.681872E+02     ; N-C-C, prebuilt ca-ca-n
 1653    1769    1770         1       120.190      5.681872E+02     ; N-C-C, prebuilt ca-ca-n
 1768    1769    1770         1       120.020      5.573088E+02     ; C-C-C, prebuilt ca-ca-ca
 1769    1770    1771         1       120.020      5.573088E+02     ; C-C-C, prebuilt ca-ca-ca
 1769    1770    1798         1       119.880      4.033376E+02     ; C-C-H, prebuilt ca-ca-ha
 1771    1770    1798         1       119.880      4.033376E+02     ; C-C-H, prebuilt ca-ca-ha
 1766    1771    1770         1       120.020      5.573088E+02     ; C-C-C, prebuilt ca-ca-ca
 1766    1771    1799         1       119.880      4.033376E+02     ; C-C-H, prebuilt ca-ca-ha
 1770    1771    1799         1       119.880      4.033376E+02     ; C-C-H, prebuilt ca-ca-ha
 1761    1772    1773         1       110.760      5.556352E+02     ; C-C-F, prebuilt c2-c3-f
 1761    1772    1774         1       110.760      5.556352E+02     ; C-C-F, prebuilt c2-c3-f
 1761    1772    1775         1       110.760      5.556352E+02     ; C-C-F, prebuilt c2-c3-f
 1773    1772    1774         1       107.360      5.932912E+02     ; F-C-F, prebuilt f-c3-f
 1773    1772    1775         1       107.360      5.932912E+02     ; F-C-F, prebuilt f-c3-f
 1774    1772    1775         1       107.360      5.932912E+02     ; F-C-F, prebuilt f-c3-f
 1713    1776    1777         1       121.940      5.782288E+02     ; N-C-C, prebuilt c2-c2-na
 1713    1776    1781         1       112.970      4.250944E+02     ; N-C-H, prebuilt h4-c2-na
 1777    1776    1781         1       122.670      4.133792E+02     ; C-C-H, prebuilt c2-c2-h4
 1712    1777    1776         1       121.940      5.782288E+02     ; N-C-C, prebuilt c2-c2-na
 1712    1777    1778         1       117.200      5.539616E+02     ; N-C-C, prebuilt c3-c2-na
 1776    1777    1778         1       123.630      5.363888E+02     ; C-C-C, prebuilt c2-c2-c3
 1777    1778    1779         1       110.760      5.556352E+02     ; C-C-F, prebuilt c2-c3-f
 1777    1778    1780         1       110.760      5.556352E+02     ; C-C-F, prebuilt c2-c3-f
 1777    1778    1802         1       110.760      5.556352E+02     ; C-C-F, prebuilt c2-c3-f
 1779    1778    1780         1       107.360      5.932912E+02     ; F-C-F, prebuilt f-c3-f
 1779    1778    1802         1       107.360      5.932912E+02     ; F-C-F, prebuilt f-c3-f
 1780    1778    1802         1       107.360      5.932912E+02     ; F-C-F, prebuilt f-c3-f
 1712    1803    1804         1       108.780      4.167264E+02     ; N-C-H, prebuilt h1-c3-na
 1712    1803    1805         1       108.780      4.167264E+02     ; N-C-H, prebuilt h1-c3-na
 1712    1803    1806         1       108.780      4.167264E+02     ; N-C-H, prebuilt h1-c3-na
 1804    1803    1805         1       108.460      3.280256E+02     ; H-C-H, prebuilt h1-c3-h1
 1804    1803    1806         1       108.460      3.280256E+02     ; H-C-H, prebuilt h1-c3-h1
 1805    1803    1806         1       108.460      3.280256E+02     ; H-C-H, prebuilt h1-c3-h1
 1809    1807    1872         1       110.370      5.631664E+02     ; C-N-C, prebuilt c2-na-c2
 1809    1807    1898         1       117.200      5.347152E+02     ; C-N-C, prebuilt c2-na-c3
 1872    1807    1898         1       117.200      5.347152E+02     ; C-N-C, prebuilt c2-na-c3
 1809    1808    1810         1       124.970      5.322048E+02     ; C-N-C, prebuilt c2-na-ca
 1809    1808    1871         1       110.370      5.631664E+02     ; C-N-C, prebuilt c2-na-c2
 1810    1808    1871         1       124.970      5.322048E+02     ; C-N-C, prebuilt c2-na-ca
 1807    1809    1808         1       109.330      6.117008E+02     ; N-C-N, prebuilt na-c2-na
 1807    1809    1846         1       125.324      5.000000E+02     ; N-C-C (na-c2-ca) missing and simply guessed
 1808    1809    1846         1       128.401      5.000000E+02     ; N-C-C (na-c2-ca) missing and simply guessed
 1808    1810    1811         1       118.340      5.782288E+02     ; N-C-C, prebuilt ca-ca-na
 1808    1810    1815         1       118.340      5.782288E+02     ; N-C-C, prebuilt ca-ca-na
 1811    1810    1815         1       120.020      5.573088E+02     ; C-C-C, prebuilt ca-ca-ca
 1810    1811    1812         1       120.020      5.573088E+02     ; C-C-C, prebuilt ca-ca-ca
 1810    1811    1877         1       119.880      4.033376E+02     ; C-C-H, prebuilt ca-ca-ha
 1812    1811    1877         1       119.880      4.033376E+02     ; C-C-H, prebuilt ca-ca-ha
 1811    1812    1813         1       120.020      5.573088E+02     ; C-C-C, prebuilt ca-ca-ca
 1811    1812    1878         1       119.880      4.033376E+02     ; C-C-H, prebuilt ca-ca-ha
 1813    1812    1878         1       119.880      4.033376E+02     ; C-C-H, prebuilt ca-ca-ha
 1812    1813    1814         1       120.020      5.573088E+02     ; C-C-C, prebuilt ca-ca-ca
 1812    1813    1816         1       120.190      5.681872E+02     ; C-C-N, prebuilt ca-ca-n
 1814    1813    1816         1       120.190      5.681872E+02     ; C-C-N, prebuilt ca-ca-n
 1813    1814    1815         1       120.020      5.573088E+02     ; C-C-C, prebuilt ca-ca-ca
 1813    1814    1880         1       119.880      4.033376E+02     ; C-C-H, prebuilt ca-ca-ha
 1815    1814    1880         1       119.880      4.033376E+02     ; C-C-H, prebuilt ca-ca-ha
 1810    1815    1814         1       120.020      5.573088E+02     ; C-C-C, prebuilt ca-ca-ca
 1810    1815    1879         1       119.880      4.033376E+02     ; C-C-H, prebuilt ca-ca-ha
 1814    1815    1879         1       119.880      4.033376E+02     ; C-C-H, prebuilt ca-ca-ha
 1813    1816    1817         1       123.710      5.338784E+02     ; C-N-C, prebuilt c-n-ca
 1813    1816    1820         1       123.710      5.338784E+02     ; C-N-C, prebuilt c-n-ca
 1817    1816    1820         1       127.080      5.330416E+02     ; C-N-C, prebuilt c-n-c
 1816    1817    1818         1       115.250      5.665136E+02     ; N-C-C, prebuilt ca-c-n
 1816    1817    1841         1       123.050      6.209056E+02     ; N-C-O, prebuilt n-c-o
 1818    1817    1841         1       122.600      5.748816E+02     ; C-C-O, prebuilt ca-c-o
 1817    1818    1819         1       120.330      5.380624E+02     ; C-C-C, prebuilt c-ca-ca
 1817    1818    1822         1       120.330      5.380624E+02     ; C-C-C, prebuilt c-ca-ca
 1819    1818    1822         1       120.020      5.573088E+02     ; C-C-C, prebuilt ca-ca-ca
 1818    1819    1820         1       120.330      5.380624E+02     ; C-C-C, prebuilt c-ca-ca
 1818    1819    1825         1       120.020      5.573088E+02     ; C-C-C, prebuilt ca-ca-ca
 1820    1819    1825         1       120.330      5.380624E+02     ; C-C-C, prebuilt c-ca-ca
 1816    1820    1819         1       115.250      5.665136E+02     ; N-C-C, prebuilt ca-c-n
 1816    1820    1821         1       123.050      6.209056E+02     ; N-C-O, prebuilt n-c-o
 1819    1820    1821         1       122.600      5.748816E+02     ; C-C-O, prebuilt ca-c-o
 1818    1822    1823         1       120.020      5.573088E+02     ; C-C-C, prebuilt ca-ca-ca
 1818    1822    1881         1       119.880      4.033376E+02     ; C-C-H, prebuilt ca-ca-ha
 1823    1822    1881         1       119.880      4.033376E+02     ; C-C-H, prebuilt ca-ca-ha
 1822    1823    1824         1       120.020      5.573088E+02     ; C-C-C, prebuilt ca-ca-ca
 1822    1823    1832         1       120.770      5.313680E+02     ; C-C-C, prebuilt c3-ca-ca
 1824    1823    1832         1       120.770      5.313680E+02     ; C-C-C, prebuilt c3-ca-ca
 1823    1824    1825         1       120.020      5.573088E+02     ; C-C-C, prebuilt ca-ca-ca
 1823    1824    1882         1       119.880      4.033376E+02     ; C-C-H, prebuilt ca-ca-ha
 1825    1824    1882         1       119.880      4.033376E+02     ; C-C-H, prebuilt ca-ca-ha
 1819    1825    1824         1       120.020      5.573088E+02     ; C-C-C, prebuilt ca-ca-ca
 1819    1825    1883         1       119.880      4.033376E+02     ; C-C-H, prebuilt ca-ca-ha
 1824    1825    1883         1       119.880      4.033376E+02     ; C-C-H, prebuilt ca-ca-ha
 1827    1826    1829         1       120.020      5.573088E+02     ; C-C-C, prebuilt ca-ca-ca
 1827    1826    1832         1       120.770      5.313680E+02     ; C-C-C, prebuilt c3-ca-ca
 1829    1826    1832         1       120.770      5.313680E+02     ; C-C-C, prebuilt c3-ca-ca
 1826    1827    1828         1       120.020      5.573088E+02     ; C-C-C, prebuilt ca-ca-ca
 1826    1827    1885         1       119.880      4.033376E+02     ; C-C-H, prebuilt ca-ca-ha
 1828    1827    1885         1       119.880      4.033376E+02     ; C-C-H, prebuilt ca-ca-ha
 1827    1828    1830         1       120.020      5.573088E+02     ; C-C-C, prebuilt ca-ca-ca
 1827    1828    1842         1       120.330      5.380624E+02     ; C-C-C, prebuilt c-ca-ca
 1830    1828    1842         1       120.330      5.380624E+02     ; C-C-C, prebuilt c-ca-ca
 1826    1829    1831         1       120.020      5.573088E+02     ; C-C-C, prebuilt ca-ca-ca
 1826    1829    1884         1       119.880      4.033376E+02     ; C-C-H, prebuilt ca-ca-ha
 1831    1829    1884         1       119.880      4.033376E+02     ; C-C-H, prebuilt ca-ca-ha
 1828    1830    1831         1       120.020      5.573088E+02     ; C-C-C, prebuilt ca-ca-ca
 1828    1830    1844         1       120.330      5.380624E+02     ; C-C-C, prebuilt c-ca-ca
 1831    1830    1844         1       120.330      5.380624E+02     ; C-C-C, prebuilt c-ca-ca
 1829    1831    1830         1       120.020      5.573088E+02     ; C-C-C, prebuilt ca-ca-ca
 1829    1831    1886         1       119.880      4.033376E+02     ; C-C-H, prebuilt ca-ca-ha
 1830    1831    1886         1       119.880      4.033376E+02     ; C-C-H, prebuilt ca-ca-ha
 1823    1832    1826         1       112.240      5.322048E+02     ; C-C-C, prebuilt ca-c3-ca
 1823    1832    1833         1       112.070      5.280208E+02     ; C-C-C, prebuilt c3-c3-ca
 1823    1832    1837         1       112.070      5.280208E+02     ; C-C-C, prebuilt c3-c3-ca
 1826    1832    1833         1       112.070      5.280208E+02     ; C-C-C, prebuilt c3-c3-ca
 1826    1832    1837         1       112.070      5.280208E+02     ; C-C-C, prebuilt c3-c3-ca
 1833    1832    1837         1       111.510      5.263472E+02     ; C-C-C, prebuilt c3-c3-c3
 1832    1833    1834         1       109.240      5.531248E+02     ; C-C-F, prebuilt c3-c3-f
 1832    1833    1835         1       109.240      5.531248E+02     ; C-C-F, prebuilt c3-c3-f
 1832    1833    1836         1       109.240      5.531248E+02     ; C-C-F, prebuilt c3-c3-f
 1834    1833    1835         1       107.360      5.932912E+02     ; F-C-F, prebuilt f-c3-f
 1834    1833    1836         1       107.360      5.932912E+02     ; F-C-F, prebuilt f-c3-f
 1835    1833    1836         1       107.360      5.932912E+02     ; F-C-F, prebuilt f-c3-f
 1832    1837    1838         1       109.240      5.531248E+02     ; C-C-F, prebuilt c3-c3-f
 1832    1837    1839         1       109.240      5.531248E+02     ; C-C-F, prebuilt c3-c3-f
 1832    1837    1840         1       109.240      5.531248E+02     ; C-C-F, prebuilt c3-c3-f
 1838    1837    1839         1       107.360      5.932912E+02     ; F-C-F, prebuilt f-c3-f
 1838    1837    1840         1       107.360      5.932912E+02     ; F-C-F, prebuilt f-c3-f
 1839    1837    1840         1       107.360      5.932912E+02     ; F-C-F, prebuilt f-c3-f
 1828    1842    1843         1       115.250      5.665136E+02     ; C-C-N, prebuilt ca-c-n
 1828    1842    1887         1       122.600      5.748816E+02     ; C-C-O, prebuilt ca-c-o
 1843    1842    1887         1       123.050      6.209056E+02     ; N-C-O, prebuilt n-c-o
 1842    1843    1844         1       127.080      5.330416E+02     ; C-N-C, prebuilt c-n-c
 1842    1843    1902         1       117.550      4.041744E+02     ; C-N-H, prebuilt c-n-hn
 1844    1843    1902         1       117.550      4.041744E+02     ; C-N-H, prebuilt c-n-hn
 1830    1844    1843         1       115.250      5.665136E+02     ; C-C-N, prebuilt ca-c-n
 1830    1844    1845         1       122.600      5.748816E+02     ; C-C-O, prebuilt ca-c-o
 1843    1844    1845         1       123.050      6.209056E+02     ; N-C-O, prebuilt n-c-o
 1809    1846    1847         1       120.600      5.589824E+02     ; C-C-C, prebuilt c2-ca-ca
 1809    1846    1848         1       120.600      5.589824E+02     ; C-C-C, prebuilt c2-ca-ca
 1847    1846    1848         1       120.020      5.573088E+02     ; C-C-C, prebuilt ca-ca-ca
 1846    1847    1849         1       120.020      5.573088E+02     ; C-C-C, prebuilt ca-ca-ca
 1846    1847    1888         1       119.880      4.033376E+02     ; C-C-H, prebuilt ca-ca-ha
 1849    1847    1888         1       119.880      4.033376E+02     ; C-C-H, prebuilt ca-ca-ha
 1846    1848    1850         1       120.020      5.573088E+02     ; C-C-C, prebuilt ca-ca-ca
 1846    1848    1890         1       119.880      4.033376E+02     ; C-C-H, prebuilt ca-ca-ha
 1850    1848    1890         1       119.880      4.033376E+02     ; C-C-H, prebuilt ca-ca-ha
 1847    1849    1851         1       120.020      5.573088E+02     ; C-C-C, prebuilt ca-ca-ca
 1847    1849    1889         1       119.880      4.033376E+02     ; C-C-H, prebuilt ca-ca-ha
 1851    1849    1889         1       119.880      4.033376E+02     ; C-C-H, prebuilt ca-ca-ha
 1848    1850    1851         1       120.020      5.573088E+02     ; C-C-C, prebuilt ca-ca-ca
 1848    1850    1896         1       119.880      4.033376E+02     ; C-C-H, prebuilt ca-ca-ha
 1851    1850    1896         1       119.880      4.033376E+02     ; C-C-H, prebuilt ca-ca-ha
 1849    1851    1850         1       120.020      5.573088E+02     ; C-C-C, prebuilt ca-ca-ca
 1849    1851    1852         1       120.600      5.589824E+02     ; C-C-C, prebuilt c2-ca-ca
 1850    1851    1852         1       120.600      5.589824E+02     ; C-C-C, prebuilt c2-ca-ca
 1851    1852    1853         1       128.278      5.000000E+02     ; C-C-N (ca-c2-na) missing and simply guessed
 1851    1852    1854         1       125.708      5.000000E+02     ; C-C-N (ca-c2-na) missing and simply guessed
 1853    1852    1854         1       109.330      6.117008E+02     ; N-C-N, prebuilt na-c2-na
 1852    1853    1855         1       110.370      5.631664E+02     ; C-N-C, prebuilt c2-na-c2
 1852    1853    1861         1       124.970      5.322048E+02     ; C-N-C, prebuilt c2-na-ca
 1855    1853    1861         1       124.970      5.322048E+02     ; C-N-C, prebuilt c2-na-ca
 1852    1854    1856         1       110.370      5.631664E+02     ; C-N-C, prebuilt c2-na-c2
 1852    1854    1857         1       117.200      5.347152E+02     ; C-N-C, prebuilt c2-na-c3
 1856    1854    1857         1       117.200      5.347152E+02     ; C-N-C, prebuilt c2-na-c3
 1853    1855    1856         1       121.940      5.782288E+02     ; N-C-C, prebuilt c2-c2-na
 1853    1855    1895         1       112.970      4.250944E+02     ; N-C-H, prebuilt h4-c2-na
 1856    1855    1895         1       122.670      4.133792E+02     ; C-C-H, prebuilt c2-c2-h4
 1854    1856    1855         1       121.940      5.782288E+02     ; N-C-C, prebuilt c2-c2-na
 1854    1856    1867         1       117.200      5.539616E+02     ; N-C-C, prebuilt c3-c2-na
 1855    1856    1867         1       123.630      5.363888E+02     ; C-C-C, prebuilt c2-c2-c3
 1854    1857    1858         1       108.780      4.167264E+02     ; N-C-H, prebuilt h1-c3-na
 1854    1857    1859         1       108.780      4.167264E+02     ; N-C-H, prebuilt h1-c3-na
 1854    1857    1860         1       108.780      4.167264E+02     ; N-C-H, prebuilt h1-c3-na
 1858    1857    1859         1       108.460      3.280256E+02     ; H-C-H, prebuilt h1-c3-h1
 1858    1857    1860         1       108.460      3.280256E+02     ; H-C-H, prebuilt h1-c3-h1
 1859    1857    1860         1       108.460      3.280256E+02     ; H-C-H, prebuilt h1-c3-h1
 1853    1861    1862         1       118.340      5.782288E+02     ; N-C-C, prebuilt ca-ca-na
 1853    1861    1866         1       118.340      5.782288E+02     ; N-C-C, prebuilt ca-ca-na
 1862    1861    1866         1       120.020      5.573088E+02     ; C-C-C, prebuilt ca-ca-ca
 1861    1862    1863         1       120.020      5.573088E+02     ; C-C-C, prebuilt ca-ca-ca
 1861    1862    1892         1       119.880      4.033376E+02     ; C-C-H, prebuilt ca-ca-ha
 1863    1862    1892         1       119.880      4.033376E+02     ; C-C-H, prebuilt ca-ca-ha
 1862    1863    1864         1       120.020      5.573088E+02     ; C-C-C, prebuilt ca-ca-ca
 1862    1863    1891         1       119.880      4.033376E+02     ; C-C-H, prebuilt ca-ca-ha
 1864    1863    1891         1       119.880      4.033376E+02     ; C-C-H, prebuilt ca-ca-ha
 1748    1864    1863         1       120.190      5.681872E+02     ; N-C-C, prebuilt ca-ca-n
 1748    1864    1865         1       120.190      5.681872E+02     ; N-C-C, prebuilt ca-ca-n
 1863    1864    1865         1       120.020      5.573088E+02     ; C-C-C, prebuilt ca-ca-ca
 1864    1865    1866         1       120.020      5.573088E+02     ; C-C-C, prebuilt ca-ca-ca
 1864    1865    1893         1       119.880      4.033376E+02     ; C-C-H, prebuilt ca-ca-ha
 1866    1865    1893         1       119.880      4.033376E+02     ; C-C-H, prebuilt ca-ca-ha
 1861    1866    1865         1       120.020      5.573088E+02     ; C-C-C, prebuilt ca-ca-ca
 1861    1866    1894         1       119.880      4.033376E+02     ; C-C-H, prebuilt ca-ca-ha
 1865    1866    1894         1       119.880      4.033376E+02     ; C-C-H, prebuilt ca-ca-ha
 1856    1867    1868         1       110.760      5.556352E+02     ; C-C-F, prebuilt c2-c3-f
 1856    1867    1869         1       110.760      5.556352E+02     ; C-C-F, prebuilt c2-c3-f
 1856    1867    1870         1       110.760      5.556352E+02     ; C-C-F, prebuilt c2-c3-f
 1868    1867    1869         1       107.360      5.932912E+02     ; F-C-F, prebuilt f-c3-f
 1868    1867    1870         1       107.360      5.932912E+02     ; F-C-F, prebuilt f-c3-f
 1869    1867    1870         1       107.360      5.932912E+02     ; F-C-F, prebuilt f-c3-f
 1808    1871    1872         1       121.940      5.782288E+02     ; N-C-C, prebuilt c2-c2-na
 1808    1871    1876         1       112.970      4.250944E+02     ; N-C-H, prebuilt h4-c2-na
 1872    1871    1876         1       122.670      4.133792E+02     ; C-C-H, prebuilt c2-c2-h4
 1807    1872    1871         1       121.940      5.782288E+02     ; N-C-C, prebuilt c2-c2-na
 1807    1872    1873         1       117.200      5.539616E+02     ; N-C-C, prebuilt c3-c2-na
 1871    1872    1873         1       123.630      5.363888E+02     ; C-C-C, prebuilt c2-c2-c3
 1872    1873    1874         1       110.760      5.556352E+02     ; C-C-F, prebuilt c2-c3-f
 1872    1873    1875         1       110.760      5.556352E+02     ; C-C-F, prebuilt c2-c3-f
 1872    1873    1897         1       110.760      5.556352E+02     ; C-C-F, prebuilt c2-c3-f
 1874    1873    1875         1       107.360      5.932912E+02     ; F-C-F, prebuilt f-c3-f
 1874    1873    1897         1       107.360      5.932912E+02     ; F-C-F, prebuilt f-c3-f
 1875    1873    1897         1       107.360      5.932912E+02     ; F-C-F, prebuilt f-c3-f
 1807    1898    1899         1       108.780      4.167264E+02     ; N-C-H, prebuilt h1-c3-na
 1807    1898    1900         1       108.780      4.167264E+02     ; N-C-H, prebuilt h1-c3-na
 1807    1898    1901         1       108.780      4.167264E+02     ; N-C-H, prebuilt h1-c3-na
 1899    1898    1900         1       108.460      3.280256E+02     ; H-C-H, prebuilt h1-c3-h1
 1899    1898    1901         1       108.460      3.280256E+02     ; H-C-H, prebuilt h1-c3-h1
 1900    1898    1901         1       108.460      3.280256E+02     ; H-C-H, prebuilt h1-c3-h1
 
[ dihedrals ] ; propers
; atom_i  atom_j  atom_k  atom_l  functype   d0 (Deg.)   k (kJ/mol/rad^2)    ; Case of functype=2
; atom_i  atom_j  atom_k  atom_l  functype  phase (Deg.)  kd (kJ/mol) pn     ; Case of functype=9
    1       3       2       4         9       180.000       2.61500    2     ; N-C-N-C, prebuilt X-c2-na-X
    1       3       2      65         9       180.000       2.61500    2     ; N-C-N-C, prebuilt X-c2-na-X
    1       3      40      41         9       180.000       2.92880    2     ; N-C-C-C, prebuilt X-c2-ca-X
    1       3      40      42         9       180.000       2.92880    2     ; N-C-C-C, prebuilt X-c2-ca-X
    1      66      65       2         9       180.000      27.82360    2     ; N-C-C-N, prebuilt X-c2-c2-X
    1      66      65      70         9       180.000      27.82360    2     ; N-C-C-H, prebuilt X-c2-c2-X
    1      66      67      68         9         0.000       0.00000    2     ; N-C-C-F, prebuilt X-c2-c3-X
    1      66      67      69         9         0.000       0.00000    2     ; N-C-C-F, prebuilt X-c2-c3-X
    1      66      67      92         9         0.000       0.00000    2     ; N-C-C-F, prebuilt X-c2-c3-X
    2       3       1      66         9       180.000       2.61500    2     ; N-C-N-C, prebuilt X-c2-na-X
    2       3       1      93         9       180.000       2.61500    2     ; N-C-N-C, prebuilt X-c2-na-X
    2       3      40      41         9       180.000       2.92880    2     ; N-C-C-C, prebuilt X-c2-ca-X
    2       3      40      42         9       180.000       2.92880    2     ; N-C-C-C, prebuilt X-c2-ca-X
    2       4       5       6         9       180.000      15.16700    2     ; N-C-C-C, prebuilt X-ca-ca-X
    2       4       5      71         9       180.000      15.16700    2     ; N-C-C-H, prebuilt X-ca-ca-X
    2       4       9       8         9       180.000      15.16700    2     ; N-C-C-C, prebuilt X-ca-ca-X
    2       4       9      73         9       180.000      15.16700    2     ; N-C-C-H, prebuilt X-ca-ca-X
    2      65      66      67         9       180.000      27.82360    2     ; N-C-C-C, prebuilt X-c2-c2-X
    3       1      66      65         9       180.000       2.61500    2     ; C-N-C-C, prebuilt X-c2-na-X
    3       1      66      67         9       180.000       2.61500    2     ; C-N-C-C, prebuilt X-c2-na-X
    3       1      93      94         9         0.000       0.00000    2     ; C-N-C-H, prebuilt X-c3-na-X
    3       1      93      95         9         0.000       0.00000    2     ; C-N-C-H, prebuilt X-c3-na-X
    3       1      93      96         9         0.000       0.00000    2     ; C-N-C-H, prebuilt X-c3-na-X
    3       2       4       5         9       180.000       1.25520    2     ; C-N-C-C, prebuilt X-ca-na-X
    3       2       4       9         9       180.000       1.25520    2     ; C-N-C-C, prebuilt X-ca-na-X
    3       2      65      66         9       180.000       2.61500    2     ; C-N-C-C, prebuilt X-c2-na-X
    3       2      65      70         9       180.000       2.61500    2     ; C-N-C-H, prebuilt X-c2-na-X
    3      40      41      43         9       180.000      15.16700    2     ; C-C-C-C, prebuilt X-ca-ca-X
    3      40      41      82         9       180.000      15.16700    2     ; C-C-C-H, prebuilt X-ca-ca-X
    3      40      42      44         9       180.000      15.16700    2     ; C-C-C-C, prebuilt X-ca-ca-X
    3      40      42      84         9       180.000      15.16700    2     ; C-C-C-H, prebuilt X-ca-ca-X
    4       2       3      40         9       180.000       2.61500    2     ; C-N-C-C, prebuilt X-c2-na-X
    4       2      65      66         9       180.000       2.61500    2     ; C-N-C-C, prebuilt X-c2-na-X
    4       2      65      70         9       180.000       2.61500    2     ; C-N-C-H, prebuilt X-c2-na-X
    4       5       6       7         9       180.000      15.16700    2     ; C-C-C-C, prebuilt X-ca-ca-X
    4       5       6      72         9       180.000      15.16700    2     ; C-C-C-H, prebuilt X-ca-ca-X
    4       9       8       7         9       180.000      15.16700    2     ; C-C-C-C, prebuilt X-ca-ca-X
    4       9       8      74         9       180.000      15.16700    2     ; C-C-C-H, prebuilt X-ca-ca-X
    5       4       2      65         9       180.000       1.25520    2     ; C-C-N-C, prebuilt X-ca-na-X
    5       4       9       8         9       180.000      15.16700    2     ; C-C-C-C, prebuilt X-ca-ca-X
    5       4       9      73         9       180.000      15.16700    2     ; C-C-C-H, prebuilt X-ca-ca-X
    5       6       7       8         9       180.000      15.16700    2     ; C-C-C-C, prebuilt X-ca-ca-X
    5       6       7      10         9       180.000      15.16700    2     ; C-C-C-N, prebuilt X-ca-ca-X
    6       5       4       9         9       180.000      15.16700    2     ; C-C-C-C, prebuilt X-ca-ca-X
    6       7       8       9         9       180.000      15.16700    2     ; C-C-C-C, prebuilt X-ca-ca-X
    6       7       8      74         9       180.000      15.16700    2     ; C-C-C-H, prebuilt X-ca-ca-X
    6       7      10      11         9       180.000       1.88280    2     ; C-C-N-C, prebuilt X-ca-n-X
    6       7      10      14         9       180.000       1.88280    2     ; C-C-N-C, prebuilt X-ca-n-X
    7       6       5      71         9       180.000      15.16700    2     ; C-C-C-H, prebuilt X-ca-ca-X
    7       8       9      73         9       180.000      15.16700    2     ; C-C-C-H, prebuilt X-ca-ca-X
    7      10      11      12         9       180.000      10.46000    2     ; C-N-C-C, prebuilt X-c-n-X
    7      10      11      35         9       180.000      10.46000    2     ; C-N-C-O, prebuilt X-c-n-X
    7      10      14      13         9       180.000      10.46000    2     ; C-N-C-C, prebuilt X-c-n-X
    7      10      14      15         9       180.000      10.46000    2     ; C-N-C-O, prebuilt X-c-n-X
    8       7       6      72         9       180.000      15.16700    2     ; C-C-C-H, prebuilt X-ca-ca-X
    8       7      10      11         9       180.000       1.88280    2     ; C-C-N-C, prebuilt X-ca-n-X
    8       7      10      14         9       180.000       1.88280    2     ; C-C-N-C, prebuilt X-ca-n-X
    9       4       2      65         9       180.000       1.25520    2     ; C-C-N-C, prebuilt X-ca-na-X
    9       4       5      71         9       180.000      15.16700    2     ; C-C-C-H, prebuilt X-ca-ca-X
    9       8       7      10         9       180.000      15.16700    2     ; C-C-C-N, prebuilt X-ca-ca-X
   10       7       6      72         9       180.000      15.16700    2     ; N-C-C-H, prebuilt X-ca-ca-X
   10       7       8      74         9       180.000      15.16700    2     ; N-C-C-H, prebuilt X-ca-ca-X
   10      11      12      13         9       180.000       4.18400    2     ; N-C-C-C, prebuilt X-c-ca-X
   10      11      12      16         9       180.000       4.18400    2     ; N-C-C-C, prebuilt X-c-ca-X
   10      14      13      12         9       180.000       4.18400    2     ; N-C-C-C, prebuilt X-c-ca-X
   10      14      13      19         9       180.000       4.18400    2     ; N-C-C-C, prebuilt X-c-ca-X
   11      10      14      13         9       180.000      10.46000    2     ; C-N-C-C, prebuilt X-c-n-X
   11      10      14      15         9       180.000      10.46000    2     ; C-N-C-O, prebuilt X-c-n-X
   11      12      13      14         9       180.000      15.16700    2     ; C-C-C-C, prebuilt X-ca-ca-X
   11      12      13      19         9       180.000      15.16700    2     ; C-C-C-C, prebuilt X-ca-ca-X
   11      12      16      17         9       180.000      15.16700    2     ; C-C-C-C, prebuilt X-ca-ca-X
   11      12      16      75         9       180.000      15.16700    2     ; C-C-C-H, prebuilt X-ca-ca-X
   12      11      10      14         9       180.000      10.46000    2     ; C-C-N-C, prebuilt X-c-n-X
   12      13      14      15         9       180.000       4.18400    2     ; C-C-C-O, prebuilt X-c-ca-X
   12      13      19      18         9       180.000      15.16700    2     ; C-C-C-C, prebuilt X-ca-ca-X
   12      13      19      77         9       180.000      15.16700    2     ; C-C-C-H, prebuilt X-ca-ca-X
   12      16      17      18         9       180.000      15.16700    2     ; C-C-C-C, prebuilt X-ca-ca-X
   12      16      17      26         9       180.000      15.16700    2     ; C-C-C-C, prebuilt X-ca-ca-X
   13      12      11      35         9       180.000       4.18400    2     ; C-C-C-O, prebuilt X-c-ca-X
   13      12      16      17         9       180.000      15.16700    2     ; C-C-C-C, prebuilt X-ca-ca-X
   13      12      16      75         9       180.000      15.16700    2     ; C-C-C-H, prebuilt X-ca-ca-X
   13      19      18      17         9       180.000      15.16700    2     ; C-C-C-C, prebuilt X-ca-ca-X
   13      19      18      76         9       180.000      15.16700    2     ; C-C-C-H, prebuilt X-ca-ca-X
   14      10      11      35         9       180.000      10.46000    2     ; C-N-C-O, prebuilt X-c-n-X
   14      13      12      16         9       180.000      15.16700    2     ; C-C-C-C, prebuilt X-ca-ca-X
   14      13      19      18         9       180.000      15.16700    2     ; C-C-C-C, prebuilt X-ca-ca-X
   14      13      19      77         9       180.000      15.16700    2     ; C-C-C-H, prebuilt X-ca-ca-X
   15      14      13      19         9       180.000       4.18400    2     ; O-C-C-C, prebuilt X-c-ca-X
   16      12      11      35         9       180.000       4.18400    2     ; C-C-C-O, prebuilt X-c-ca-X
   16      12      13      19         9       180.000      15.16700    2     ; C-C-C-C, prebuilt X-ca-ca-X
   16      17      18      19         9       180.000      15.16700    2     ; C-C-C-C, prebuilt X-ca-ca-X
   16      17      18      76         9       180.000      15.16700    2     ; C-C-C-H, prebuilt X-ca-ca-X
   16      17      26      20         9         0.000       0.00000    2     ; C-C-C-C, prebuilt X-c3-ca-X
   16      17      26      27         9         0.000       0.00000    2     ; C-C-C-C, prebuilt X-c3-ca-X
   16      17      26      31         9         0.000       0.00000    2     ; C-C-C-C, prebuilt X-c3-ca-X
   17      18      19      77         9       180.000      15.16700    2     ; C-C-C-H, prebuilt X-ca-ca-X
   17      26      20      21         9         0.000       0.00000    2     ; C-C-C-C, prebuilt X-c3-ca-X
   17      26      20      23         9         0.000       0.00000    2     ; C-C-C-C, prebuilt X-c3-ca-X
   17      26      27      28         9         0.000       0.65084    3     ; C-C-C-F, prebuilt X-c3-c3-X
   17      26      27      29         9         0.000       0.65084    3     ; C-C-C-F, prebuilt X-c3-c3-X
   17      26      27      30         9         0.000       0.65084    3     ; C-C-C-F, prebuilt X-c3-c3-X
   17      26      31      32         9         0.000       0.65084    3     ; C-C-C-F, prebuilt X-c3-c3-X
   17      26      31      33         9         0.000       0.65084    3     ; C-C-C-F, prebuilt X-c3-c3-X
   17      26      31      34         9         0.000       0.65084    3     ; C-C-C-F, prebuilt X-c3-c3-X
   18      17      16      75         9       180.000      15.16700    2     ; C-C-C-H, prebuilt X-ca-ca-X
   18      17      26      20         9         0.000       0.00000    2     ; C-C-C-C, prebuilt X-c3-ca-X
   18      17      26      27         9         0.000       0.00000    2     ; C-C-C-C, prebuilt X-c3-ca-X
   18      17      26      31         9         0.000       0.00000    2     ; C-C-C-C, prebuilt X-c3-ca-X
   19      18      17      26         9       180.000      15.16700    2     ; C-C-C-C, prebuilt X-ca-ca-X
   20      21      22      24         9       180.000      15.16700    2     ; C-C-C-C, prebuilt X-ca-ca-X
   20      21      22      36         9       180.000      15.16700    2     ; C-C-C-C, prebuilt X-ca-ca-X
   20      23      25      24         9       180.000      15.16700    2     ; C-C-C-C, prebuilt X-ca-ca-X
   20      23      25      80         9       180.000      15.16700    2     ; C-C-C-H, prebuilt X-ca-ca-X
   20      26      27      28         9         0.000       0.65084    3     ; C-C-C-F, prebuilt X-c3-c3-X
   20      26      27      29         9         0.000       0.65084    3     ; C-C-C-F, prebuilt X-c3-c3-X
   20      26      27      30         9         0.000       0.65084    3     ; C-C-C-F, prebuilt X-c3-c3-X
   20      26      31      32         9         0.000       0.65084    3     ; C-C-C-F, prebuilt X-c3-c3-X
   20      26      31      33         9         0.000       0.65084    3     ; C-C-C-F, prebuilt X-c3-c3-X
   20      26      31      34         9         0.000       0.65084    3     ; C-C-C-F, prebuilt X-c3-c3-X
   21      20      23      25         9       180.000      15.16700    2     ; C-C-C-C, prebuilt X-ca-ca-X
   21      20      23      78         9       180.000      15.16700    2     ; C-C-C-H, prebuilt X-ca-ca-X
   21      20      26      27         9         0.000       0.00000    2     ; C-C-C-C, prebuilt X-c3-ca-X
   21      20      26      31         9         0.000       0.00000    2     ; C-C-C-C, prebuilt X-c3-ca-X
   21      22      24      25         9       180.000      15.16700    2     ; C-C-C-C, prebuilt X-ca-ca-X
   21      22      24      38         9       180.000      15.16700    2     ; C-C-C-C, prebuilt X-ca-ca-X
   21      22      36      37         9       180.000       4.18400    2     ; C-C-C-N, prebuilt X-c-ca-X
   21      22      36      81         9       180.000       4.18400    2     ; C-C-C-O, prebuilt X-c-ca-X
   22      21      20      23         9       180.000      15.16700    2     ; C-C-C-C, prebuilt X-ca-ca-X
   22      21      20      26         9       180.000      15.16700    2     ; C-C-C-C, prebuilt X-ca-ca-X
   22      24      25      23         9       180.000      15.16700    2     ; C-C-C-C, prebuilt X-ca-ca-X
   22      24      25      80         9       180.000      15.16700    2     ; C-C-C-H, prebuilt X-ca-ca-X
   22      24      38      37         9       180.000       4.18400    2     ; C-C-C-N, prebuilt X-c-ca-X
   22      24      38      39         9       180.000       4.18400    2     ; C-C-C-O, prebuilt X-c-ca-X
   22      36      37      38         9       180.000      10.46000    2     ; C-C-N-C, prebuilt X-c-n-X
   22      36      37     154         9       180.000      10.46000    2     ; C-C-N-C, prebuilt X-c-n-X
   23      20      21      79         9       180.000      15.16700    2     ; C-C-C-H, prebuilt X-ca-ca-X
   23      20      26      27         9         0.000       0.00000    2     ; C-C-C-C, prebuilt X-c3-ca-X
   23      20      26      31         9         0.000       0.00000    2     ; C-C-C-C, prebuilt X-c3-ca-X
   23      25      24      38         9       180.000      15.16700    2     ; C-C-C-C, prebuilt X-ca-ca-X
   24      22      21      79         9       180.000      15.16700    2     ; C-C-C-H, prebuilt X-ca-ca-X
   24      22      36      37         9       180.000       4.18400    2     ; C-C-C-N, prebuilt X-c-ca-X
   24      22      36      81         9       180.000       4.18400    2     ; C-C-C-O, prebuilt X-c-ca-X
   24      25      23      78         9       180.000      15.16700    2     ; C-C-C-H, prebuilt X-ca-ca-X
   24      38      37      36         9       180.000      10.46000    2     ; C-C-N-C, prebuilt X-c-n-X
   24      38      37     154         9       180.000      10.46000    2     ; C-C-N-C, prebuilt X-c-n-X
   25      23      20      26         9       180.000      15.16700    2     ; C-C-C-C, prebuilt X-ca-ca-X
   25      24      22      36         9       180.000      15.16700    2     ; C-C-C-C, prebuilt X-ca-ca-X
   25      24      38      37         9       180.000       4.18400    2     ; C-C-C-N, prebuilt X-c-ca-X
   25      24      38      39         9       180.000       4.18400    2     ; C-C-C-O, prebuilt X-c-ca-X
   26      17      16      75         9       180.000      15.16700    2     ; C-C-C-H, prebuilt X-ca-ca-X
   26      17      18      76         9       180.000      15.16700    2     ; C-C-C-H, prebuilt X-ca-ca-X
   26      20      21      79         9       180.000      15.16700    2     ; C-C-C-H, prebuilt X-ca-ca-X
   26      20      23      78         9       180.000      15.16700    2     ; C-C-C-H, prebuilt X-ca-ca-X
   27      26      31      32         9         0.000       0.65084    3     ; C-C-C-F, prebuilt X-c3-c3-X
   27      26      31      33         9         0.000       0.65084    3     ; C-C-C-F, prebuilt X-c3-c3-X
   27      26      31      34         9         0.000       0.65084    3     ; C-C-C-F, prebuilt X-c3-c3-X
   28      27      26      31         9         0.000       0.65084    3     ; F-C-C-C, prebuilt X-c3-c3-X
   29      27      26      31         9         0.000       0.65084    3     ; F-C-C-C, prebuilt X-c3-c3-X
   30      27      26      31         9         0.000       0.65084    3     ; F-C-C-C, prebuilt X-c3-c3-X
   36      22      21      79         9       180.000      15.16700    2     ; C-C-C-H, prebuilt X-ca-ca-X
   36      22      24      38         9       180.000      15.16700    2     ; C-C-C-C, prebuilt X-ca-ca-X
   36      37      38      39         9       180.000      10.46000    2     ; C-N-C-O, prebuilt X-c-n-X
   36      37     154     153         9       180.000       1.88280    2     ; C-N-C-C, prebuilt X-ca-n-X
   36      37     154     155         9       180.000       1.88280    2     ; C-N-C-C, prebuilt X-ca-n-X
   37     154     153     152         9       180.000      15.16700    2     ; N-C-C-C, prebuilt X-ca-ca-X
   37     154     153     181         9       180.000      15.16700    2     ; N-C-C-H, prebuilt X-ca-ca-X
   37     154     155     156         9       180.000      15.16700    2     ; N-C-C-C, prebuilt X-ca-ca-X
   37     154     155     183         9       180.000      15.16700    2     ; N-C-C-H, prebuilt X-ca-ca-X
   38      24      25      80         9       180.000      15.16700    2     ; C-C-C-H, prebuilt X-ca-ca-X
   38      37      36      81         9       180.000      10.46000    2     ; C-N-C-O, prebuilt X-c-n-X
   38      37     154     153         9       180.000       1.88280    2     ; C-N-C-C, prebuilt X-ca-n-X
   38      37     154     155         9       180.000       1.88280    2     ; C-N-C-C, prebuilt X-ca-n-X
   39      38      37     154         9       180.000      10.46000    2     ; O-C-N-C, prebuilt X-c-n-X
   40       3       1      66         9       180.000       2.61500    2     ; C-C-N-C, prebuilt X-c2-na-X
   40       3       1      93         9       180.000       2.61500    2     ; C-C-N-C, prebuilt X-c2-na-X
   40       3       2      65         9       180.000       2.61500    2     ; C-C-N-C, prebuilt X-c2-na-X
   40      41      43      45         9       180.000      15.16700    2     ; C-C-C-C, prebuilt X-ca-ca-X
   40      41      43      83         9       180.000      15.16700    2     ; C-C-C-H, prebuilt X-ca-ca-X
   40      42      44      45         9       180.000      15.16700    2     ; C-C-C-C, prebuilt X-ca-ca-X
   40      42      44      91         9       180.000      15.16700    2     ; C-C-C-H, prebuilt X-ca-ca-X
   41      40      42      44         9       180.000      15.16700    2     ; C-C-C-C, prebuilt X-ca-ca-X
   41      40      42      84         9       180.000      15.16700    2     ; C-C-C-H, prebuilt X-ca-ca-X
   41      43      45      44         9       180.000      15.16700    2     ; C-C-C-C, prebuilt X-ca-ca-X
   41      43      45      46         9       180.000      15.16700    2     ; C-C-C-C, prebuilt X-ca-ca-X
   42      40      41      43         9       180.000      15.16700    2     ; C-C-C-C, prebuilt X-ca-ca-X
   42      40      41      82         9       180.000      15.16700    2     ; C-C-C-H, prebuilt X-ca-ca-X
   42      44      45      43         9       180.000      15.16700    2     ; C-C-C-C, prebuilt X-ca-ca-X
   42      44      45      46         9       180.000      15.16700    2     ; C-C-C-C, prebuilt X-ca-ca-X
   43      45      44      91         9       180.000      15.16700    2     ; C-C-C-H, prebuilt X-ca-ca-X
   43      45      46      47         9       180.000       2.92880    2     ; C-C-C-N, prebuilt X-c2-ca-X
   43      45      46      48         9       180.000       2.92880    2     ; C-C-C-N, prebuilt X-c2-ca-X
   44      45      43      83         9       180.000      15.16700    2     ; C-C-C-H, prebuilt X-ca-ca-X
   44      45      46      47         9       180.000       2.92880    2     ; C-C-C-N, prebuilt X-c2-ca-X
   44      45      46      48         9       180.000       2.92880    2     ; C-C-C-N, prebuilt X-c2-ca-X
   45      43      41      82         9       180.000      15.16700    2     ; C-C-C-H, prebuilt X-ca-ca-X
   45      44      42      84         9       180.000      15.16700    2     ; C-C-C-H, prebuilt X-ca-ca-X
   45      46      47      49         9       180.000       2.61500    2     ; C-C-N-C, prebuilt X-c2-na-X
   45      46      47      55         9       180.000       2.61500    2     ; C-C-N-C, prebuilt X-c2-na-X
   45      46      48      50         9       180.000       2.61500    2     ; C-C-N-C, prebuilt X-c2-na-X
   45      46      48      51         9       180.000       2.61500    2     ; C-C-N-C, prebuilt X-c2-na-X
   46      45      43      83         9       180.000      15.16700    2     ; C-C-C-H, prebuilt X-ca-ca-X
   46      45      44      91         9       180.000      15.16700    2     ; C-C-C-H, prebuilt X-ca-ca-X
   46      47      49      50         9       180.000       2.61500    2     ; C-N-C-C, prebuilt X-c2-na-X
   46      47      49      90         9       180.000       2.61500    2     ; C-N-C-H, prebuilt X-c2-na-X
   46      47      55      56         9       180.000       1.25520    2     ; C-N-C-C, prebuilt X-ca-na-X
   46      47      55      60         9       180.000       1.25520    2     ; C-N-C-C, prebuilt X-ca-na-X
   46      48      50      49         9       180.000       2.61500    2     ; C-N-C-C, prebuilt X-c2-na-X
   46      48      50      61         9       180.000       2.61500    2     ; C-N-C-C, prebuilt X-c2-na-X
   46      48      51      52         9         0.000       0.00000    2     ; C-N-C-H, prebuilt X-c3-na-X
   46      48      51      53         9         0.000       0.00000    2     ; C-N-C-H, prebuilt X-c3-na-X
   46      48      51      54         9         0.000       0.00000    2     ; C-N-C-H, prebuilt X-c3-na-X
   47      46      48      50         9       180.000       2.61500    2     ; N-C-N-C, prebuilt X-c2-na-X
   47      46      48      51         9       180.000       2.61500    2     ; N-C-N-C, prebuilt X-c2-na-X
   47      49      50      48         9       180.000      27.82360    2     ; N-C-C-N, prebuilt X-c2-c2-X
   47      49      50      61         9       180.000      27.82360    2     ; N-C-C-C, prebuilt X-c2-c2-X
   47      55      56      57         9       180.000      15.16700    2     ; N-C-C-C, prebuilt X-ca-ca-X
   47      55      56      87         9       180.000      15.16700    2     ; N-C-C-H, prebuilt X-ca-ca-X
   47      55      60      59         9       180.000      15.16700    2     ; N-C-C-C, prebuilt X-ca-ca-X
   47      55      60      89         9       180.000      15.16700    2     ; N-C-C-H, prebuilt X-ca-ca-X
   48      46      47      49         9       180.000       2.61500    2     ; N-C-N-C, prebuilt X-c2-na-X
   48      46      47      55         9       180.000       2.61500    2     ; N-C-N-C, prebuilt X-c2-na-X
   48      50      49      90         9       180.000      27.82360    2     ; N-C-C-H, prebuilt X-c2-c2-X
   48      50      61      62         9         0.000       0.00000    2     ; N-C-C-F, prebuilt X-c2-c3-X
   48      50      61      63         9         0.000       0.00000    2     ; N-C-C-F, prebuilt X-c2-c3-X
   48      50      61      64         9         0.000       0.00000    2     ; N-C-C-F, prebuilt X-c2-c3-X
   49      47      55      56         9       180.000       1.25520    2     ; C-N-C-C, prebuilt X-ca-na-X
   49      47      55      60         9       180.000       1.25520    2     ; C-N-C-C, prebuilt X-ca-na-X
   49      50      48      51         9       180.000       2.61500    2     ; C-C-N-C, prebuilt X-c2-na-X
   49      50      61      62         9         0.000       0.00000    2     ; C-C-C-F, prebuilt X-c2-c3-X
   49      50      61      63         9         0.000       0.00000    2     ; C-C-C-F, prebuilt X-c2-c3-X
   49      50      61      64         9         0.000       0.00000    2     ; C-C-C-F, prebuilt X-c2-c3-X
   50      48      51      52         9         0.000       0.00000    2     ; C-N-C-H, prebuilt X-c3-na-X
   50      48      51      53         9         0.000       0.00000    2     ; C-N-C-H, prebuilt X-c3-na-X
   50      48      51      54         9         0.000       0.00000    2     ; C-N-C-H, prebuilt X-c3-na-X
   50      49      47      55         9       180.000       2.61500    2     ; C-C-N-C, prebuilt X-c2-na-X
   51      48      50      61         9       180.000       2.61500    2     ; C-N-C-C, prebuilt X-c2-na-X
   55      47      49      90         9       180.000       2.61500    2     ; C-N-C-H, prebuilt X-c2-na-X
   55      56      57      58         9       180.000      15.16700    2     ; C-C-C-C, prebuilt X-ca-ca-X
   55      56      57      85         9       180.000      15.16700    2     ; C-C-C-H, prebuilt X-ca-ca-X
   55      60      59      58         9       180.000      15.16700    2     ; C-C-C-C, prebuilt X-ca-ca-X
   55      60      59      88         9       180.000      15.16700    2     ; C-C-C-H, prebuilt X-ca-ca-X
   56      55      60      59         9       180.000      15.16700    2     ; C-C-C-C, prebuilt X-ca-ca-X
   56      55      60      89         9       180.000      15.16700    2     ; C-C-C-H, prebuilt X-ca-ca-X
   56      57      58      59         9       180.000      15.16700    2     ; C-C-C-C, prebuilt X-ca-ca-X
   56      57      58      86         9       180.000      15.16700    2     ; C-C-C-H, prebuilt X-ca-ca-X
   57      56      55      60         9       180.000      15.16700    2     ; C-C-C-C, prebuilt X-ca-ca-X
   57      58      59      60         9       180.000      15.16700    2     ; C-C-C-C, prebuilt X-ca-ca-X
   57      58      59      88         9       180.000      15.16700    2     ; C-C-C-H, prebuilt X-ca-ca-X
   58      57      56      87         9       180.000      15.16700    2     ; C-C-C-H, prebuilt X-ca-ca-X
   58      59      60      89         9       180.000      15.16700    2     ; C-C-C-H, prebuilt X-ca-ca-X
   59      58      57      85         9       180.000      15.16700    2     ; C-C-C-H, prebuilt X-ca-ca-X
   60      55      56      87         9       180.000      15.16700    2     ; C-C-C-H, prebuilt X-ca-ca-X
   60      59      58      86         9       180.000      15.16700    2     ; C-C-C-H, prebuilt X-ca-ca-X
   61      50      49      90         9       180.000      27.82360    2     ; C-C-C-H, prebuilt X-c2-c2-X
   65      66       1      93         9       180.000       2.61500    2     ; C-C-N-C, prebuilt X-c2-na-X
   65      66      67      68         9         0.000       0.00000    2     ; C-C-C-F, prebuilt X-c2-c3-X
   65      66      67      69         9         0.000       0.00000    2     ; C-C-C-F, prebuilt X-c2-c3-X
   65      66      67      92         9         0.000       0.00000    2     ; C-C-C-F, prebuilt X-c2-c3-X
   66       1      93      94         9         0.000       0.00000    2     ; C-N-C-H, prebuilt X-c3-na-X
   66       1      93      95         9         0.000       0.00000    2     ; C-N-C-H, prebuilt X-c3-na-X
   66       1      93      96         9         0.000       0.00000    2     ; C-N-C-H, prebuilt X-c3-na-X
   67      66       1      93         9       180.000       2.61500    2     ; C-C-N-C, prebuilt X-c2-na-X
   67      66      65      70         9       180.000      27.82360    2     ; C-C-C-H, prebuilt X-c2-c2-X
   71       5       6      72         9       180.000      15.16700    2     ; H-C-C-H, prebuilt X-ca-ca-X
   73       9       8      74         9       180.000      15.16700    2     ; H-C-C-H, prebuilt X-ca-ca-X
   76      18      19      77         9       180.000      15.16700    2     ; H-C-C-H, prebuilt X-ca-ca-X
   78      23      25      80         9       180.000      15.16700    2     ; H-C-C-H, prebuilt X-ca-ca-X
   81      36      37     154         9       180.000      10.46000    2     ; O-C-N-C, prebuilt X-c-n-X
   82      41      43      83         9       180.000      15.16700    2     ; H-C-C-H, prebuilt X-ca-ca-X
   84      42      44      91         9       180.000      15.16700    2     ; H-C-C-H, prebuilt X-ca-ca-X
   85      57      56      87         9       180.000      15.16700    2     ; H-C-C-H, prebuilt X-ca-ca-X
   85      57      58      86         9       180.000      15.16700    2     ; H-C-C-H, prebuilt X-ca-ca-X
   86      58      59      88         9       180.000      15.16700    2     ; H-C-C-H, prebuilt X-ca-ca-X
   88      59      60      89         9       180.000      15.16700    2     ; H-C-C-H, prebuilt X-ca-ca-X
   97      99      98     100         9       180.000       2.61500    2     ; N-C-N-C, prebuilt X-c2-na-X
   97      99      98     161         9       180.000       2.61500    2     ; N-C-N-C, prebuilt X-c2-na-X
   97      99     136     137         9       180.000       2.92880    2     ; N-C-C-C, prebuilt X-c2-ca-X
   97      99     136     138         9       180.000       2.92880    2     ; N-C-C-C, prebuilt X-c2-ca-X
   97     162     161      98         9       180.000      27.82360    2     ; N-C-C-N, prebuilt X-c2-c2-X
   97     162     161     166         9       180.000      27.82360    2     ; N-C-C-H, prebuilt X-c2-c2-X
   97     162     163     164         9         0.000       0.00000    2     ; N-C-C-F, prebuilt X-c2-c3-X
   97     162     163     165         9         0.000       0.00000    2     ; N-C-C-F, prebuilt X-c2-c3-X
   97     162     163     187         9         0.000       0.00000    2     ; N-C-C-F, prebuilt X-c2-c3-X
   98      99      97     162         9       180.000       2.61500    2     ; N-C-N-C, prebuilt X-c2-na-X
   98      99      97     188         9       180.000       2.61500    2     ; N-C-N-C, prebuilt X-c2-na-X
   98      99     136     137         9       180.000       2.92880    2     ; N-C-C-C, prebuilt X-c2-ca-X
   98      99     136     138         9       180.000       2.92880    2     ; N-C-C-C, prebuilt X-c2-ca-X
   98     100     101     102         9       180.000      15.16700    2     ; N-C-C-C, prebuilt X-ca-ca-X
   98     100     101     167         9       180.000      15.16700    2     ; N-C-C-H, prebuilt X-ca-ca-X
   98     100     105     104         9       180.000      15.16700    2     ; N-C-C-C, prebuilt X-ca-ca-X
   98     100     105     169         9       180.000      15.16700    2     ; N-C-C-H, prebuilt X-ca-ca-X
   98     161     162     163         9       180.000      27.82360    2     ; N-C-C-C, prebuilt X-c2-c2-X
   99      97     162     161         9       180.000       2.61500    2     ; C-N-C-C, prebuilt X-c2-na-X
   99      97     162     163         9       180.000       2.61500    2     ; C-N-C-C, prebuilt X-c2-na-X
   99      97     188     189         9         0.000       0.00000    2     ; C-N-C-H, prebuilt X-c3-na-X
   99      97     188     190         9         0.000       0.00000    2     ; C-N-C-H, prebuilt X-c3-na-X
   99      97     188     191         9         0.000       0.00000    2     ; C-N-C-H, prebuilt X-c3-na-X
   99      98     100     101         9       180.000       1.25520    2     ; C-N-C-C, prebuilt X-ca-na-X
   99      98     100     105         9       180.000       1.25520    2     ; C-N-C-C, prebuilt X-ca-na-X
   99      98     161     162         9       180.000       2.61500    2     ; C-N-C-C, prebuilt X-c2-na-X
   99      98     161     166         9       180.000       2.61500    2     ; C-N-C-H, prebuilt X-c2-na-X
   99     136     137     139         9       180.000      15.16700    2     ; C-C-C-C, prebuilt X-ca-ca-X
   99     136     137     178         9       180.000      15.16700    2     ; C-C-C-H, prebuilt X-ca-ca-X
   99     136     138     140         9       180.000      15.16700    2     ; C-C-C-C, prebuilt X-ca-ca-X
   99     136     138     180         9       180.000      15.16700    2     ; C-C-C-H, prebuilt X-ca-ca-X
  100      98      99     136         9       180.000       2.61500    2     ; C-N-C-C, prebuilt X-c2-na-X
  100      98     161     162         9       180.000       2.61500    2     ; C-N-C-C, prebuilt X-c2-na-X
  100      98     161     166         9       180.000       2.61500    2     ; C-N-C-H, prebuilt X-c2-na-X
  100     101     102     103         9       180.000      15.16700    2     ; C-C-C-C, prebuilt X-ca-ca-X
  100     101     102     168         9       180.000      15.16700    2     ; C-C-C-H, prebuilt X-ca-ca-X
  100     105     104     103         9       180.000      15.16700    2     ; C-C-C-C, prebuilt X-ca-ca-X
  100     105     104     170         9       180.000      15.16700    2     ; C-C-C-H, prebuilt X-ca-ca-X
  101     100      98     161         9       180.000       1.25520    2     ; C-C-N-C, prebuilt X-ca-na-X
  101     100     105     104         9       180.000      15.16700    2     ; C-C-C-C, prebuilt X-ca-ca-X
  101     100     105     169         9       180.000      15.16700    2     ; C-C-C-H, prebuilt X-ca-ca-X
  101     102     103     104         9       180.000      15.16700    2     ; C-C-C-C, prebuilt X-ca-ca-X
  101     102     103     106         9       180.000      15.16700    2     ; C-C-C-N, prebuilt X-ca-ca-X
  102     101     100     105         9       180.000      15.16700    2     ; C-C-C-C, prebuilt X-ca-ca-X
  102     103     104     105         9       180.000      15.16700    2     ; C-C-C-C, prebuilt X-ca-ca-X
  102     103     104     170         9       180.000      15.16700    2     ; C-C-C-H, prebuilt X-ca-ca-X
  102     103     106     107         9       180.000       1.88280    2     ; C-C-N-C, prebuilt X-ca-n-X
  102     103     106     110         9       180.000       1.88280    2     ; C-C-N-C, prebuilt X-ca-n-X
  103     102     101     167         9       180.000      15.16700    2     ; C-C-C-H, prebuilt X-ca-ca-X
  103     104     105     169         9       180.000      15.16700    2     ; C-C-C-H, prebuilt X-ca-ca-X
  103     106     107     108         9       180.000      10.46000    2     ; C-N-C-C, prebuilt X-c-n-X
  103     106     107     131         9       180.000      10.46000    2     ; C-N-C-O, prebuilt X-c-n-X
  103     106     110     109         9       180.000      10.46000    2     ; C-N-C-C, prebuilt X-c-n-X
  103     106     110     111         9       180.000      10.46000    2     ; C-N-C-O, prebuilt X-c-n-X
  104     103     102     168         9       180.000      15.16700    2     ; C-C-C-H, prebuilt X-ca-ca-X
  104     103     106     107         9       180.000       1.88280    2     ; C-C-N-C, prebuilt X-ca-n-X
  104     103     106     110         9       180.000       1.88280    2     ; C-C-N-C, prebuilt X-ca-n-X
  105     100      98     161         9       180.000       1.25520    2     ; C-C-N-C, prebuilt X-ca-na-X
  105     100     101     167         9       180.000      15.16700    2     ; C-C-C-H, prebuilt X-ca-ca-X
  105     104     103     106         9       180.000      15.16700    2     ; C-C-C-N, prebuilt X-ca-ca-X
  106     103     102     168         9       180.000      15.16700    2     ; N-C-C-H, prebuilt X-ca-ca-X
  106     103     104     170         9       180.000      15.16700    2     ; N-C-C-H, prebuilt X-ca-ca-X
  106     107     108     109         9       180.000       4.18400    2     ; N-C-C-C, prebuilt X-c-ca-X
  106     107     108     112         9       180.000       4.18400    2     ; N-C-C-C, prebuilt X-c-ca-X
  106     110     109     108         9       180.000       4.18400    2     ; N-C-C-C, prebuilt X-c-ca-X
  106     110     109     115         9       180.000       4.18400    2     ; N-C-C-C, prebuilt X-c-ca-X
  107     106     110     109         9       180.000      10.46000    2     ; C-N-C-C, prebuilt X-c-n-X
  107     106     110     111         9       180.000      10.46000    2     ; C-N-C-O, prebuilt X-c-n-X
  107     108     109     110         9       180.000      15.16700    2     ; C-C-C-C, prebuilt X-ca-ca-X
  107     108     109     115         9       180.000      15.16700    2     ; C-C-C-C, prebuilt X-ca-ca-X
  107     108     112     113         9       180.000      15.16700    2     ; C-C-C-C, prebuilt X-ca-ca-X
  107     108     112     171         9       180.000      15.16700    2     ; C-C-C-H, prebuilt X-ca-ca-X
  108     107     106     110         9       180.000      10.46000    2     ; C-C-N-C, prebuilt X-c-n-X
  108     109     110     111         9       180.000       4.18400    2     ; C-C-C-O, prebuilt X-c-ca-X
  108     109     115     114         9       180.000      15.16700    2     ; C-C-C-C, prebuilt X-ca-ca-X
  108     109     115     173         9       180.000      15.16700    2     ; C-C-C-H, prebuilt X-ca-ca-X
  108     112     113     114         9       180.000      15.16700    2     ; C-C-C-C, prebuilt X-ca-ca-X
  108     112     113     122         9       180.000      15.16700    2     ; C-C-C-C, prebuilt X-ca-ca-X
  109     108     107     131         9       180.000       4.18400    2     ; C-C-C-O, prebuilt X-c-ca-X
  109     108     112     113         9       180.000      15.16700    2     ; C-C-C-C, prebuilt X-ca-ca-X
  109     108     112     171         9       180.000      15.16700    2     ; C-C-C-H, prebuilt X-ca-ca-X
  109     115     114     113         9       180.000      15.16700    2     ; C-C-C-C, prebuilt X-ca-ca-X
  109     115     114     172         9       180.000      15.16700    2     ; C-C-C-H, prebuilt X-ca-ca-X
  110     106     107     131         9       180.000      10.46000    2     ; C-N-C-O, prebuilt X-c-n-X
  110     109     108     112         9       180.000      15.16700    2     ; C-C-C-C, prebuilt X-ca-ca-X
  110     109     115     114         9       180.000      15.16700    2     ; C-C-C-C, prebuilt X-ca-ca-X
  110     109     115     173         9       180.000      15.16700    2     ; C-C-C-H, prebuilt X-ca-ca-X
  111     110     109     115         9       180.000       4.18400    2     ; O-C-C-C, prebuilt X-c-ca-X
  112     108     107     131         9       180.000       4.18400    2     ; C-C-C-O, prebuilt X-c-ca-X
  112     108     109     115         9       180.000      15.16700    2     ; C-C-C-C, prebuilt X-ca-ca-X
  112     113     114     115         9       180.000      15.16700    2     ; C-C-C-C, prebuilt X-ca-ca-X
  112     113     114     172         9       180.000      15.16700    2     ; C-C-C-H, prebuilt X-ca-ca-X
  112     113     122     116         9         0.000       0.00000    2     ; C-C-C-C, prebuilt X-c3-ca-X
  112     113     122     123         9         0.000       0.00000    2     ; C-C-C-C, prebuilt X-c3-ca-X
  112     113     122     127         9         0.000       0.00000    2     ; C-C-C-C, prebuilt X-c3-ca-X
  113     114     115     173         9       180.000      15.16700    2     ; C-C-C-H, prebuilt X-ca-ca-X
  113     122     116     117         9         0.000       0.00000    2     ; C-C-C-C, prebuilt X-c3-ca-X
  113     122     116     119         9         0.000       0.00000    2     ; C-C-C-C, prebuilt X-c3-ca-X
  113     122     123     124         9         0.000       0.65084    3     ; C-C-C-F, prebuilt X-c3-c3-X
  113     122     123     125         9         0.000       0.65084    3     ; C-C-C-F, prebuilt X-c3-c3-X
  113     122     123     126         9         0.000       0.65084    3     ; C-C-C-F, prebuilt X-c3-c3-X
  113     122     127     128         9         0.000       0.65084    3     ; C-C-C-F, prebuilt X-c3-c3-X
  113     122     127     129         9         0.000       0.65084    3     ; C-C-C-F, prebuilt X-c3-c3-X
  113     122     127     130         9         0.000       0.65084    3     ; C-C-C-F, prebuilt X-c3-c3-X
  114     113     112     171         9       180.000      15.16700    2     ; C-C-C-H, prebuilt X-ca-ca-X
  114     113     122     116         9         0.000       0.00000    2     ; C-C-C-C, prebuilt X-c3-ca-X
  114     113     122     123         9         0.000       0.00000    2     ; C-C-C-C, prebuilt X-c3-ca-X
  114     113     122     127         9         0.000       0.00000    2     ; C-C-C-C, prebuilt X-c3-ca-X
  115     114     113     122         9       180.000      15.16700    2     ; C-C-C-C, prebuilt X-ca-ca-X
  116     117     118     120         9       180.000      15.16700    2     ; C-C-C-C, prebuilt X-ca-ca-X
  116     117     118     132         9       180.000      15.16700    2     ; C-C-C-C, prebuilt X-ca-ca-X
  116     119     121     120         9       180.000      15.16700    2     ; C-C-C-C, prebuilt X-ca-ca-X
  116     119     121     176         9       180.000      15.16700    2     ; C-C-C-H, prebuilt X-ca-ca-X
  116     122     123     124         9         0.000       0.65084    3     ; C-C-C-F, prebuilt X-c3-c3-X
  116     122     123     125         9         0.000       0.65084    3     ; C-C-C-F, prebuilt X-c3-c3-X
  116     122     123     126         9         0.000       0.65084    3     ; C-C-C-F, prebuilt X-c3-c3-X
  116     122     127     128         9         0.000       0.65084    3     ; C-C-C-F, prebuilt X-c3-c3-X
  116     122     127     129         9         0.000       0.65084    3     ; C-C-C-F, prebuilt X-c3-c3-X
  116     122     127     130         9         0.000       0.65084    3     ; C-C-C-F, prebuilt X-c3-c3-X
  117     116     119     121         9       180.000      15.16700    2     ; C-C-C-C, prebuilt X-ca-ca-X
  117     116     119     174         9       180.000      15.16700    2     ; C-C-C-H, prebuilt X-ca-ca-X
  117     116     122     123         9         0.000       0.00000    2     ; C-C-C-C, prebuilt X-c3-ca-X
  117     116     122     127         9         0.000       0.00000    2     ; C-C-C-C, prebuilt X-c3-ca-X
  117     118     120     121         9       180.000      15.16700    2     ; C-C-C-C, prebuilt X-ca-ca-X
  117     118     120     134         9       180.000      15.16700    2     ; C-C-C-C, prebuilt X-ca-ca-X
  117     118     132     133         9       180.000       4.18400    2     ; C-C-C-N, prebuilt X-c-ca-X
  117     118     132     177         9       180.000       4.18400    2     ; C-C-C-O, prebuilt X-c-ca-X
  118     117     116     119         9       180.000      15.16700    2     ; C-C-C-C, prebuilt X-ca-ca-X
  118     117     116     122         9       180.000      15.16700    2     ; C-C-C-C, prebuilt X-ca-ca-X
  118     120     121     119         9       180.000      15.16700    2     ; C-C-C-C, prebuilt X-ca-ca-X
  118     120     121     176         9       180.000      15.16700    2     ; C-C-C-H, prebuilt X-ca-ca-X
  118     120     134     133         9       180.000       4.18400    2     ; C-C-C-N, prebuilt X-c-ca-X
  118     120     134     135         9       180.000       4.18400    2     ; C-C-C-O, prebuilt X-c-ca-X
  118     132     133     134         9       180.000      10.46000    2     ; C-C-N-C, prebuilt X-c-n-X
  118     132     133     249         9       180.000      10.46000    2     ; C-C-N-C, prebuilt X-c-n-X
  119     116     117     175         9       180.000      15.16700    2     ; C-C-C-H, prebuilt X-ca-ca-X
  119     116     122     123         9         0.000       0.00000    2     ; C-C-C-C, prebuilt X-c3-ca-X
  119     116     122     127         9         0.000       0.00000    2     ; C-C-C-C, prebuilt X-c3-ca-X
  119     121     120     134         9       180.000      15.16700    2     ; C-C-C-C, prebuilt X-ca-ca-X
  120     118     117     175         9       180.000      15.16700    2     ; C-C-C-H, prebuilt X-ca-ca-X
  120     118     132     133         9       180.000       4.18400    2     ; C-C-C-N, prebuilt X-c-ca-X
  120     118     132     177         9       180.000       4.18400    2     ; C-C-C-O, prebuilt X-c-ca-X
  120     121     119     174         9       180.000      15.16700    2     ; C-C-C-H, prebuilt X-ca-ca-X
  120     134     133     132         9       180.000      10.46000    2     ; C-C-N-C, prebuilt X-c-n-X
  120     134     133     249         9       180.000      10.46000    2     ; C-C-N-C, prebuilt X-c-n-X
  121     119     116     122         9       180.000      15.16700    2     ; C-C-C-C, prebuilt X-ca-ca-X
  121     120     118     132         9       180.000      15.16700    2     ; C-C-C-C, prebuilt X-ca-ca-X
  121     120     134     133         9       180.000       4.18400    2     ; C-C-C-N, prebuilt X-c-ca-X
  121     120     134     135         9       180.000       4.18400    2     ; C-C-C-O, prebuilt X-c-ca-X
  122     113     112     171         9       180.000      15.16700    2     ; C-C-C-H, prebuilt X-ca-ca-X
  122     113     114     172         9       180.000      15.16700    2     ; C-C-C-H, prebuilt X-ca-ca-X
  122     116     117     175         9       180.000      15.16700    2     ; C-C-C-H, prebuilt X-ca-ca-X
  122     116     119     174         9       180.000      15.16700    2     ; C-C-C-H, prebuilt X-ca-ca-X
  123     122     127     128         9         0.000       0.65084    3     ; C-C-C-F, prebuilt X-c3-c3-X
  123     122     127     129         9         0.000       0.65084    3     ; C-C-C-F, prebuilt X-c3-c3-X
  123     122     127     130         9         0.000       0.65084    3     ; C-C-C-F, prebuilt X-c3-c3-X
  124     123     122     127         9         0.000       0.65084    3     ; F-C-C-C, prebuilt X-c3-c3-X
  125     123     122     127         9         0.000       0.65084    3     ; F-C-C-C, prebuilt X-c3-c3-X
  126     123     122     127         9         0.000       0.65084    3     ; F-C-C-C, prebuilt X-c3-c3-X
  132     118     117     175         9       180.000      15.16700    2     ; C-C-C-H, prebuilt X-ca-ca-X
  132     118     120     134         9       180.000      15.16700    2     ; C-C-C-C, prebuilt X-ca-ca-X
  132     133     134     135         9       180.000      10.46000    2     ; C-N-C-O, prebuilt X-c-n-X
  132     133     249     248         9       180.000       1.88280    2     ; C-N-C-C, prebuilt X-ca-n-X
  132     133     249     250         9       180.000       1.88280    2     ; C-N-C-C, prebuilt X-ca-n-X
  133     249     248     247         9       180.000      15.16700    2     ; N-C-C-C, prebuilt X-ca-ca-X
  133     249     248     276         9       180.000      15.16700    2     ; N-C-C-H, prebuilt X-ca-ca-X
  133     249     250     251         9       180.000      15.16700    2     ; N-C-C-C, prebuilt X-ca-ca-X
  133     249     250     278         9       180.000      15.16700    2     ; N-C-C-H, prebuilt X-ca-ca-X
  134     120     121     176         9       180.000      15.16700    2     ; C-C-C-H, prebuilt X-ca-ca-X
  134     133     132     177         9       180.000      10.46000    2     ; C-N-C-O, prebuilt X-c-n-X
  134     133     249     248         9       180.000       1.88280    2     ; C-N-C-C, prebuilt X-ca-n-X
  134     133     249     250         9       180.000       1.88280    2     ; C-N-C-C, prebuilt X-ca-n-X
  135     134     133     249         9       180.000      10.46000    2     ; O-C-N-C, prebuilt X-c-n-X
  136      99      97     162         9       180.000       2.61500    2     ; C-C-N-C, prebuilt X-c2-na-X
  136      99      97     188         9       180.000       2.61500    2     ; C-C-N-C, prebuilt X-c2-na-X
  136      99      98     161         9       180.000       2.61500    2     ; C-C-N-C, prebuilt X-c2-na-X
  136     137     139     141         9       180.000      15.16700    2     ; C-C-C-C, prebuilt X-ca-ca-X
  136     137     139     179         9       180.000      15.16700    2     ; C-C-C-H, prebuilt X-ca-ca-X
  136     138     140     141         9       180.000      15.16700    2     ; C-C-C-C, prebuilt X-ca-ca-X
  136     138     140     186         9       180.000      15.16700    2     ; C-C-C-H, prebuilt X-ca-ca-X
  137     136     138     140         9       180.000      15.16700    2     ; C-C-C-C, prebuilt X-ca-ca-X
  137     136     138     180         9       180.000      15.16700    2     ; C-C-C-H, prebuilt X-ca-ca-X
  137     139     141     140         9       180.000      15.16700    2     ; C-C-C-C, prebuilt X-ca-ca-X
  137     139     141     142         9       180.000      15.16700    2     ; C-C-C-C, prebuilt X-ca-ca-X
  138     136     137     139         9       180.000      15.16700    2     ; C-C-C-C, prebuilt X-ca-ca-X
  138     136     137     178         9       180.000      15.16700    2     ; C-C-C-H, prebuilt X-ca-ca-X
  138     140     141     139         9       180.000      15.16700    2     ; C-C-C-C, prebuilt X-ca-ca-X
  138     140     141     142         9       180.000      15.16700    2     ; C-C-C-C, prebuilt X-ca-ca-X
  139     141     140     186         9       180.000      15.16700    2     ; C-C-C-H, prebuilt X-ca-ca-X
  139     141     142     143         9       180.000       2.92880    2     ; C-C-C-N, prebuilt X-c2-ca-X
  139     141     142     144         9       180.000       2.92880    2     ; C-C-C-N, prebuilt X-c2-ca-X
  140     141     139     179         9       180.000      15.16700    2     ; C-C-C-H, prebuilt X-ca-ca-X
  140     141     142     143         9       180.000       2.92880    2     ; C-C-C-N, prebuilt X-c2-ca-X
  140     141     142     144         9       180.000       2.92880    2     ; C-C-C-N, prebuilt X-c2-ca-X
  141     139     137     178         9       180.000      15.16700    2     ; C-C-C-H, prebuilt X-ca-ca-X
  141     140     138     180         9       180.000      15.16700    2     ; C-C-C-H, prebuilt X-ca-ca-X
  141     142     143     145         9       180.000       2.61500    2     ; C-C-N-C, prebuilt X-c2-na-X
  141     142     143     151         9       180.000       2.61500    2     ; C-C-N-C, prebuilt X-c2-na-X
  141     142     144     146         9       180.000       2.61500    2     ; C-C-N-C, prebuilt X-c2-na-X
  141     142     144     147         9       180.000       2.61500    2     ; C-C-N-C, prebuilt X-c2-na-X
  142     141     139     179         9       180.000      15.16700    2     ; C-C-C-H, prebuilt X-ca-ca-X
  142     141     140     186         9       180.000      15.16700    2     ; C-C-C-H, prebuilt X-ca-ca-X
  142     143     145     146         9       180.000       2.61500    2     ; C-N-C-C, prebuilt X-c2-na-X
  142     143     145     185         9       180.000       2.61500    2     ; C-N-C-H, prebuilt X-c2-na-X
  142     143     151     152         9       180.000       1.25520    2     ; C-N-C-C, prebuilt X-ca-na-X
  142     143     151     156         9       180.000       1.25520    2     ; C-N-C-C, prebuilt X-ca-na-X
  142     144     146     145         9       180.000       2.61500    2     ; C-N-C-C, prebuilt X-c2-na-X
  142     144     146     157         9       180.000       2.61500    2     ; C-N-C-C, prebuilt X-c2-na-X
  142     144     147     148         9         0.000       0.00000    2     ; C-N-C-H, prebuilt X-c3-na-X
  142     144     147     149         9         0.000       0.00000    2     ; C-N-C-H, prebuilt X-c3-na-X
  142     144     147     150         9         0.000       0.00000    2     ; C-N-C-H, prebuilt X-c3-na-X
  143     142     144     146         9       180.000       2.61500    2     ; N-C-N-C, prebuilt X-c2-na-X
  143     142     144     147         9       180.000       2.61500    2     ; N-C-N-C, prebuilt X-c2-na-X
  143     145     146     144         9       180.000      27.82360    2     ; N-C-C-N, prebuilt X-c2-c2-X
  143     145     146     157         9       180.000      27.82360    2     ; N-C-C-C, prebuilt X-c2-c2-X
  143     151     152     153         9       180.000      15.16700    2     ; N-C-C-C, prebuilt X-ca-ca-X
  143     151     152     182         9       180.000      15.16700    2     ; N-C-C-H, prebuilt X-ca-ca-X
  143     151     156     155         9       180.000      15.16700    2     ; N-C-C-C, prebuilt X-ca-ca-X
  143     151     156     184         9       180.000      15.16700    2     ; N-C-C-H, prebuilt X-ca-ca-X
  144     142     143     145         9       180.000       2.61500    2     ; N-C-N-C, prebuilt X-c2-na-X
  144     142     143     151         9       180.000       2.61500    2     ; N-C-N-C, prebuilt X-c2-na-X
  144     146     145     185         9       180.000      27.82360    2     ; N-C-C-H, prebuilt X-c2-c2-X
  144     146     157     158         9         0.000       0.00000    2     ; N-C-C-F, prebuilt X-c2-c3-X
  144     146     157     159         9         0.000       0.00000    2     ; N-C-C-F, prebuilt X-c2-c3-X
  144     146     157     160         9         0.000       0.00000    2     ; N-C-C-F, prebuilt X-c2-c3-X
  145     143     151     152         9       180.000       1.25520    2     ; C-N-C-C, prebuilt X-ca-na-X
  145     143     151     156         9       180.000       1.25520    2     ; C-N-C-C, prebuilt X-ca-na-X
  145     146     144     147         9       180.000       2.61500    2     ; C-C-N-C, prebuilt X-c2-na-X
  145     146     157     158         9         0.000       0.00000    2     ; C-C-C-F, prebuilt X-c2-c3-X
  145     146     157     159         9         0.000       0.00000    2     ; C-C-C-F, prebuilt X-c2-c3-X
  145     146     157     160         9         0.000       0.00000    2     ; C-C-C-F, prebuilt X-c2-c3-X
  146     144     147     148         9         0.000       0.00000    2     ; C-N-C-H, prebuilt X-c3-na-X
  146     144     147     149         9         0.000       0.00000    2     ; C-N-C-H, prebuilt X-c3-na-X
  146     144     147     150         9         0.000       0.00000    2     ; C-N-C-H, prebuilt X-c3-na-X
  146     145     143     151         9       180.000       2.61500    2     ; C-C-N-C, prebuilt X-c2-na-X
  147     144     146     157         9       180.000       2.61500    2     ; C-N-C-C, prebuilt X-c2-na-X
  151     143     145     185         9       180.000       2.61500    2     ; C-N-C-H, prebuilt X-c2-na-X
  151     152     153     154         9       180.000      15.16700    2     ; C-C-C-C, prebuilt X-ca-ca-X
  151     152     153     181         9       180.000      15.16700    2     ; C-C-C-H, prebuilt X-ca-ca-X
  151     156     155     154         9       180.000      15.16700    2     ; C-C-C-C, prebuilt X-ca-ca-X
  151     156     155     183         9       180.000      15.16700    2     ; C-C-C-H, prebuilt X-ca-ca-X
  152     151     156     155         9       180.000      15.16700    2     ; C-C-C-C, prebuilt X-ca-ca-X
  152     151     156     184         9       180.000      15.16700    2     ; C-C-C-H, prebuilt X-ca-ca-X
  152     153     154     155         9       180.000      15.16700    2     ; C-C-C-C, prebuilt X-ca-ca-X
  153     152     151     156         9       180.000      15.16700    2     ; C-C-C-C, prebuilt X-ca-ca-X
  153     154     155     156         9       180.000      15.16700    2     ; C-C-C-C, prebuilt X-ca-ca-X
  153     154     155     183         9       180.000      15.16700    2     ; C-C-C-H, prebuilt X-ca-ca-X
  154     153     152     182         9       180.000      15.16700    2     ; C-C-C-H, prebuilt X-ca-ca-X
  154     155     156     184         9       180.000      15.16700    2     ; C-C-C-H, prebuilt X-ca-ca-X
  155     154     153     181         9       180.000      15.16700    2     ; C-C-C-H, prebuilt X-ca-ca-X
  156     151     152     182         9       180.000      15.16700    2     ; C-C-C-H, prebuilt X-ca-ca-X
  157     146     145     185         9       180.000      27.82360    2     ; C-C-C-H, prebuilt X-c2-c2-X
  161     162      97     188         9       180.000       2.61500    2     ; C-C-N-C, prebuilt X-c2-na-X
  161     162     163     164         9         0.000       0.00000    2     ; C-C-C-F, prebuilt X-c2-c3-X
  161     162     163     165         9         0.000       0.00000    2     ; C-C-C-F, prebuilt X-c2-c3-X
  161     162     163     187         9         0.000       0.00000    2     ; C-C-C-F, prebuilt X-c2-c3-X
  162      97     188     189         9         0.000       0.00000    2     ; C-N-C-H, prebuilt X-c3-na-X
  162      97     188     190         9         0.000       0.00000    2     ; C-N-C-H, prebuilt X-c3-na-X
  162      97     188     191         9         0.000       0.00000    2     ; C-N-C-H, prebuilt X-c3-na-X
  163     162      97     188         9       180.000       2.61500    2     ; C-C-N-C, prebuilt X-c2-na-X
  163     162     161     166         9       180.000      27.82360    2     ; C-C-C-H, prebuilt X-c2-c2-X
  167     101     102     168         9       180.000      15.16700    2     ; H-C-C-H, prebuilt X-ca-ca-X
  169     105     104     170         9       180.000      15.16700    2     ; H-C-C-H, prebuilt X-ca-ca-X
  172     114     115     173         9       180.000      15.16700    2     ; H-C-C-H, prebuilt X-ca-ca-X
  174     119     121     176         9       180.000      15.16700    2     ; H-C-C-H, prebuilt X-ca-ca-X
  177     132     133     249         9       180.000      10.46000    2     ; O-C-N-C, prebuilt X-c-n-X
  178     137     139     179         9       180.000      15.16700    2     ; H-C-C-H, prebuilt X-ca-ca-X
  180     138     140     186         9       180.000      15.16700    2     ; H-C-C-H, prebuilt X-ca-ca-X
  181     153     152     182         9       180.000      15.16700    2     ; H-C-C-H, prebuilt X-ca-ca-X
  183     155     156     184         9       180.000      15.16700    2     ; H-C-C-H, prebuilt X-ca-ca-X
  192     194     193     195         9       180.000       2.61500    2     ; N-C-N-C, prebuilt X-c2-na-X
  192     194     193     256         9       180.000       2.61500    2     ; N-C-N-C, prebuilt X-c2-na-X
  192     194     231     232         9       180.000       2.92880    2     ; N-C-C-C, prebuilt X-c2-ca-X
  192     194     231     233         9       180.000       2.92880    2     ; N-C-C-C, prebuilt X-c2-ca-X
  192     257     256     193         9       180.000      27.82360    2     ; N-C-C-N, prebuilt X-c2-c2-X
  192     257     256     261         9       180.000      27.82360    2     ; N-C-C-H, prebuilt X-c2-c2-X
  192     257     258     259         9         0.000       0.00000    2     ; N-C-C-F, prebuilt X-c2-c3-X
  192     257     258     260         9         0.000       0.00000    2     ; N-C-C-F, prebuilt X-c2-c3-X
  192     257     258     282         9         0.000       0.00000    2     ; N-C-C-F, prebuilt X-c2-c3-X
  193     194     192     257         9       180.000       2.61500    2     ; N-C-N-C, prebuilt X-c2-na-X
  193     194     192     283         9       180.000       2.61500    2     ; N-C-N-C, prebuilt X-c2-na-X
  193     194     231     232         9       180.000       2.92880    2     ; N-C-C-C, prebuilt X-c2-ca-X
  193     194     231     233         9       180.000       2.92880    2     ; N-C-C-C, prebuilt X-c2-ca-X
  193     195     196     197         9       180.000      15.16700    2     ; N-C-C-C, prebuilt X-ca-ca-X
  193     195     196     262         9       180.000      15.16700    2     ; N-C-C-H, prebuilt X-ca-ca-X
  193     195     200     199         9       180.000      15.16700    2     ; N-C-C-C, prebuilt X-ca-ca-X
  193     195     200     264         9       180.000      15.16700    2     ; N-C-C-H, prebuilt X-ca-ca-X
  193     256     257     258         9       180.000      27.82360    2     ; N-C-C-C, prebuilt X-c2-c2-X
  194     192     257     256         9       180.000       2.61500    2     ; C-N-C-C, prebuilt X-c2-na-X
  194     192     257     258         9       180.000       2.61500    2     ; C-N-C-C, prebuilt X-c2-na-X
  194     192     283     284         9         0.000       0.00000    2     ; C-N-C-H, prebuilt X-c3-na-X
  194     192     283     285         9         0.000       0.00000    2     ; C-N-C-H, prebuilt X-c3-na-X
  194     192     283     286         9         0.000       0.00000    2     ; C-N-C-H, prebuilt X-c3-na-X
  194     193     195     196         9       180.000       1.25520    2     ; C-N-C-C, prebuilt X-ca-na-X
  194     193     195     200         9       180.000       1.25520    2     ; C-N-C-C, prebuilt X-ca-na-X
  194     193     256     257         9       180.000       2.61500    2     ; C-N-C-C, prebuilt X-c2-na-X
  194     193     256     261         9       180.000       2.61500    2     ; C-N-C-H, prebuilt X-c2-na-X
  194     231     232     234         9       180.000      15.16700    2     ; C-C-C-C, prebuilt X-ca-ca-X
  194     231     232     273         9       180.000      15.16700    2     ; C-C-C-H, prebuilt X-ca-ca-X
  194     231     233     235         9       180.000      15.16700    2     ; C-C-C-C, prebuilt X-ca-ca-X
  194     231     233     275         9       180.000      15.16700    2     ; C-C-C-H, prebuilt X-ca-ca-X
  195     193     194     231         9       180.000       2.61500    2     ; C-N-C-C, prebuilt X-c2-na-X
  195     193     256     257         9       180.000       2.61500    2     ; C-N-C-C, prebuilt X-c2-na-X
  195     193     256     261         9       180.000       2.61500    2     ; C-N-C-H, prebuilt X-c2-na-X
  195     196     197     198         9       180.000      15.16700    2     ; C-C-C-C, prebuilt X-ca-ca-X
  195     196     197     263         9       180.000      15.16700    2     ; C-C-C-H, prebuilt X-ca-ca-X
  195     200     199     198         9       180.000      15.16700    2     ; C-C-C-C, prebuilt X-ca-ca-X
  195     200     199     265         9       180.000      15.16700    2     ; C-C-C-H, prebuilt X-ca-ca-X
  196     195     193     256         9       180.000       1.25520    2     ; C-C-N-C, prebuilt X-ca-na-X
  196     195     200     199         9       180.000      15.16700    2     ; C-C-C-C, prebuilt X-ca-ca-X
  196     195     200     264         9       180.000      15.16700    2     ; C-C-C-H, prebuilt X-ca-ca-X
  196     197     198     199         9       180.000      15.16700    2     ; C-C-C-C, prebuilt X-ca-ca-X
  196     197     198     201         9       180.000      15.16700    2     ; C-C-C-N, prebuilt X-ca-ca-X
  197     196     195     200         9       180.000      15.16700    2     ; C-C-C-C, prebuilt X-ca-ca-X
  197     198     199     200         9       180.000      15.16700    2     ; C-C-C-C, prebuilt X-ca-ca-X
  197     198     199     265         9       180.000      15.16700    2     ; C-C-C-H, prebuilt X-ca-ca-X
  197     198     201     202         9       180.000       1.88280    2     ; C-C-N-C, prebuilt X-ca-n-X
  197     198     201     205         9       180.000       1.88280    2     ; C-C-N-C, prebuilt X-ca-n-X
  198     197     196     262         9       180.000      15.16700    2     ; C-C-C-H, prebuilt X-ca-ca-X
  198     199     200     264         9       180.000      15.16700    2     ; C-C-C-H, prebuilt X-ca-ca-X
  198     201     202     203         9       180.000      10.46000    2     ; C-N-C-C, prebuilt X-c-n-X
  198     201     202     226         9       180.000      10.46000    2     ; C-N-C-O, prebuilt X-c-n-X
  198     201     205     204         9       180.000      10.46000    2     ; C-N-C-C, prebuilt X-c-n-X
  198     201     205     206         9       180.000      10.46000    2     ; C-N-C-O, prebuilt X-c-n-X
  199     198     197     263         9       180.000      15.16700    2     ; C-C-C-H, prebuilt X-ca-ca-X
  199     198     201     202         9       180.000       1.88280    2     ; C-C-N-C, prebuilt X-ca-n-X
  199     198     201     205         9       180.000       1.88280    2     ; C-C-N-C, prebuilt X-ca-n-X
  200     195     193     256         9       180.000       1.25520    2     ; C-C-N-C, prebuilt X-ca-na-X
  200     195     196     262         9       180.000      15.16700    2     ; C-C-C-H, prebuilt X-ca-ca-X
  200     199     198     201         9       180.000      15.16700    2     ; C-C-C-N, prebuilt X-ca-ca-X
  201     198     197     263         9       180.000      15.16700    2     ; N-C-C-H, prebuilt X-ca-ca-X
  201     198     199     265         9       180.000      15.16700    2     ; N-C-C-H, prebuilt X-ca-ca-X
  201     202     203     204         9       180.000       4.18400    2     ; N-C-C-C, prebuilt X-c-ca-X
  201     202     203     207         9       180.000       4.18400    2     ; N-C-C-C, prebuilt X-c-ca-X
  201     205     204     203         9       180.000       4.18400    2     ; N-C-C-C, prebuilt X-c-ca-X
  201     205     204     210         9       180.000       4.18400    2     ; N-C-C-C, prebuilt X-c-ca-X
  202     201     205     204         9       180.000      10.46000    2     ; C-N-C-C, prebuilt X-c-n-X
  202     201     205     206         9       180.000      10.46000    2     ; C-N-C-O, prebuilt X-c-n-X
  202     203     204     205         9       180.000      15.16700    2     ; C-C-C-C, prebuilt X-ca-ca-X
  202     203     204     210         9       180.000      15.16700    2     ; C-C-C-C, prebuilt X-ca-ca-X
  202     203     207     208         9       180.000      15.16700    2     ; C-C-C-C, prebuilt X-ca-ca-X
  202     203     207     266         9       180.000      15.16700    2     ; C-C-C-H, prebuilt X-ca-ca-X
  203     202     201     205         9       180.000      10.46000    2     ; C-C-N-C, prebuilt X-c-n-X
  203     204     205     206         9       180.000       4.18400    2     ; C-C-C-O, prebuilt X-c-ca-X
  203     204     210     209         9       180.000      15.16700    2     ; C-C-C-C, prebuilt X-ca-ca-X
  203     204     210     268         9       180.000      15.16700    2     ; C-C-C-H, prebuilt X-ca-ca-X
  203     207     208     209         9       180.000      15.16700    2     ; C-C-C-C, prebuilt X-ca-ca-X
  203     207     208     217         9       180.000      15.16700    2     ; C-C-C-C, prebuilt X-ca-ca-X
  204     203     202     226         9       180.000       4.18400    2     ; C-C-C-O, prebuilt X-c-ca-X
  204     203     207     208         9       180.000      15.16700    2     ; C-C-C-C, prebuilt X-ca-ca-X
  204     203     207     266         9       180.000      15.16700    2     ; C-C-C-H, prebuilt X-ca-ca-X
  204     210     209     208         9       180.000      15.16700    2     ; C-C-C-C, prebuilt X-ca-ca-X
  204     210     209     267         9       180.000      15.16700    2     ; C-C-C-H, prebuilt X-ca-ca-X
  205     201     202     226         9       180.000      10.46000    2     ; C-N-C-O, prebuilt X-c-n-X
  205     204     203     207         9       180.000      15.16700    2     ; C-C-C-C, prebuilt X-ca-ca-X
  205     204     210     209         9       180.000      15.16700    2     ; C-C-C-C, prebuilt X-ca-ca-X
  205     204     210     268         9       180.000      15.16700    2     ; C-C-C-H, prebuilt X-ca-ca-X
  206     205     204     210         9       180.000       4.18400    2     ; O-C-C-C, prebuilt X-c-ca-X
  207     203     202     226         9       180.000       4.18400    2     ; C-C-C-O, prebuilt X-c-ca-X
  207     203     204     210         9       180.000      15.16700    2     ; C-C-C-C, prebuilt X-ca-ca-X
  207     208     209     210         9       180.000      15.16700    2     ; C-C-C-C, prebuilt X-ca-ca-X
  207     208     209     267         9       180.000      15.16700    2     ; C-C-C-H, prebuilt X-ca-ca-X
  207     208     217     211         9         0.000       0.00000    2     ; C-C-C-C, prebuilt X-c3-ca-X
  207     208     217     218         9         0.000       0.00000    2     ; C-C-C-C, prebuilt X-c3-ca-X
  207     208     217     222         9         0.000       0.00000    2     ; C-C-C-C, prebuilt X-c3-ca-X
  208     209     210     268         9       180.000      15.16700    2     ; C-C-C-H, prebuilt X-ca-ca-X
  208     217     211     212         9         0.000       0.00000    2     ; C-C-C-C, prebuilt X-c3-ca-X
  208     217     211     214         9         0.000       0.00000    2     ; C-C-C-C, prebuilt X-c3-ca-X
  208     217     218     219         9         0.000       0.65084    3     ; C-C-C-F, prebuilt X-c3-c3-X
  208     217     218     220         9         0.000       0.65084    3     ; C-C-C-F, prebuilt X-c3-c3-X
  208     217     218     221         9         0.000       0.65084    3     ; C-C-C-F, prebuilt X-c3-c3-X
  208     217     222     223         9         0.000       0.65084    3     ; C-C-C-F, prebuilt X-c3-c3-X
  208     217     222     224         9         0.000       0.65084    3     ; C-C-C-F, prebuilt X-c3-c3-X
  208     217     222     225         9         0.000       0.65084    3     ; C-C-C-F, prebuilt X-c3-c3-X
  209     208     207     266         9       180.000      15.16700    2     ; C-C-C-H, prebuilt X-ca-ca-X
  209     208     217     211         9         0.000       0.00000    2     ; C-C-C-C, prebuilt X-c3-ca-X
  209     208     217     218         9         0.000       0.00000    2     ; C-C-C-C, prebuilt X-c3-ca-X
  209     208     217     222         9         0.000       0.00000    2     ; C-C-C-C, prebuilt X-c3-ca-X
  210     209     208     217         9       180.000      15.16700    2     ; C-C-C-C, prebuilt X-ca-ca-X
  211     212     213     215         9       180.000      15.16700    2     ; C-C-C-C, prebuilt X-ca-ca-X
  211     212     213     227         9       180.000      15.16700    2     ; C-C-C-C, prebuilt X-ca-ca-X
  211     214     216     215         9       180.000      15.16700    2     ; C-C-C-C, prebuilt X-ca-ca-X
  211     214     216     271         9       180.000      15.16700    2     ; C-C-C-H, prebuilt X-ca-ca-X
  211     217     218     219         9         0.000       0.65084    3     ; C-C-C-F, prebuilt X-c3-c3-X
  211     217     218     220         9         0.000       0.65084    3     ; C-C-C-F, prebuilt X-c3-c3-X
  211     217     218     221         9         0.000       0.65084    3     ; C-C-C-F, prebuilt X-c3-c3-X
  211     217     222     223         9         0.000       0.65084    3     ; C-C-C-F, prebuilt X-c3-c3-X
  211     217     222     224         9         0.000       0.65084    3     ; C-C-C-F, prebuilt X-c3-c3-X
  211     217     222     225         9         0.000       0.65084    3     ; C-C-C-F, prebuilt X-c3-c3-X
  212     211     214     216         9       180.000      15.16700    2     ; C-C-C-C, prebuilt X-ca-ca-X
  212     211     214     269         9       180.000      15.16700    2     ; C-C-C-H, prebuilt X-ca-ca-X
  212     211     217     218         9         0.000       0.00000    2     ; C-C-C-C, prebuilt X-c3-ca-X
  212     211     217     222         9         0.000       0.00000    2     ; C-C-C-C, prebuilt X-c3-ca-X
  212     213     215     216         9       180.000      15.16700    2     ; C-C-C-C, prebuilt X-ca-ca-X
  212     213     215     229         9       180.000      15.16700    2     ; C-C-C-C, prebuilt X-ca-ca-X
  212     213     227     228         9       180.000       4.18400    2     ; C-C-C-N, prebuilt X-c-ca-X
  212     213     227     272         9       180.000       4.18400    2     ; C-C-C-O, prebuilt X-c-ca-X
  213     212     211     214         9       180.000      15.16700    2     ; C-C-C-C, prebuilt X-ca-ca-X
  213     212     211     217         9       180.000      15.16700    2     ; C-C-C-C, prebuilt X-ca-ca-X
  213     215     216     214         9       180.000      15.16700    2     ; C-C-C-C, prebuilt X-ca-ca-X
  213     215     216     271         9       180.000      15.16700    2     ; C-C-C-H, prebuilt X-ca-ca-X
  213     215     229     228         9       180.000       4.18400    2     ; C-C-C-N, prebuilt X-c-ca-X
  213     215     229     230         9       180.000       4.18400    2     ; C-C-C-O, prebuilt X-c-ca-X
  213     227     228     229         9       180.000      10.46000    2     ; C-C-N-C, prebuilt X-c-n-X
  213     227     228     344         9       180.000      10.46000    2     ; C-C-N-C, prebuilt X-c-n-X
  214     211     212     270         9       180.000      15.16700    2     ; C-C-C-H, prebuilt X-ca-ca-X
  214     211     217     218         9         0.000       0.00000    2     ; C-C-C-C, prebuilt X-c3-ca-X
  214     211     217     222         9         0.000       0.00000    2     ; C-C-C-C, prebuilt X-c3-ca-X
  214     216     215     229         9       180.000      15.16700    2     ; C-C-C-C, prebuilt X-ca-ca-X
  215     213     212     270         9       180.000      15.16700    2     ; C-C-C-H, prebuilt X-ca-ca-X
  215     213     227     228         9       180.000       4.18400    2     ; C-C-C-N, prebuilt X-c-ca-X
  215     213     227     272         9       180.000       4.18400    2     ; C-C-C-O, prebuilt X-c-ca-X
  215     216     214     269         9       180.000      15.16700    2     ; C-C-C-H, prebuilt X-ca-ca-X
  215     229     228     227         9       180.000      10.46000    2     ; C-C-N-C, prebuilt X-c-n-X
  215     229     228     344         9       180.000      10.46000    2     ; C-C-N-C, prebuilt X-c-n-X
  216     214     211     217         9       180.000      15.16700    2     ; C-C-C-C, prebuilt X-ca-ca-X
  216     215     213     227         9       180.000      15.16700    2     ; C-C-C-C, prebuilt X-ca-ca-X
  216     215     229     228         9       180.000       4.18400    2     ; C-C-C-N, prebuilt X-c-ca-X
  216     215     229     230         9       180.000       4.18400    2     ; C-C-C-O, prebuilt X-c-ca-X
  217     208     207     266         9       180.000      15.16700    2     ; C-C-C-H, prebuilt X-ca-ca-X
  217     208     209     267         9       180.000      15.16700    2     ; C-C-C-H, prebuilt X-ca-ca-X
  217     211     212     270         9       180.000      15.16700    2     ; C-C-C-H, prebuilt X-ca-ca-X
  217     211     214     269         9       180.000      15.16700    2     ; C-C-C-H, prebuilt X-ca-ca-X
  218     217     222     223         9         0.000       0.65084    3     ; C-C-C-F, prebuilt X-c3-c3-X
  218     217     222     224         9         0.000       0.65084    3     ; C-C-C-F, prebuilt X-c3-c3-X
  218     217     222     225         9         0.000       0.65084    3     ; C-C-C-F, prebuilt X-c3-c3-X
  219     218     217     222         9         0.000       0.65084    3     ; F-C-C-C, prebuilt X-c3-c3-X
  220     218     217     222         9         0.000       0.65084    3     ; F-C-C-C, prebuilt X-c3-c3-X
  221     218     217     222         9         0.000       0.65084    3     ; F-C-C-C, prebuilt X-c3-c3-X
  227     213     212     270         9       180.000      15.16700    2     ; C-C-C-H, prebuilt X-ca-ca-X
  227     213     215     229         9       180.000      15.16700    2     ; C-C-C-C, prebuilt X-ca-ca-X
  227     228     229     230         9       180.000      10.46000    2     ; C-N-C-O, prebuilt X-c-n-X
  227     228     344     343         9       180.000       1.88280    2     ; C-N-C-C, prebuilt X-ca-n-X
  227     228     344     345         9       180.000       1.88280    2     ; C-N-C-C, prebuilt X-ca-n-X
  228     344     343     342         9       180.000      15.16700    2     ; N-C-C-C, prebuilt X-ca-ca-X
  228     344     343     371         9       180.000      15.16700    2     ; N-C-C-H, prebuilt X-ca-ca-X
  228     344     345     346         9       180.000      15.16700    2     ; N-C-C-C, prebuilt X-ca-ca-X
  228     344     345     373         9       180.000      15.16700    2     ; N-C-C-H, prebuilt X-ca-ca-X
  229     215     216     271         9       180.000      15.16700    2     ; C-C-C-H, prebuilt X-ca-ca-X
  229     228     227     272         9       180.000      10.46000    2     ; C-N-C-O, prebuilt X-c-n-X
  229     228     344     343         9       180.000       1.88280    2     ; C-N-C-C, prebuilt X-ca-n-X
  229     228     344     345         9       180.000       1.88280    2     ; C-N-C-C, prebuilt X-ca-n-X
  230     229     228     344         9       180.000      10.46000    2     ; O-C-N-C, prebuilt X-c-n-X
  231     194     192     257         9       180.000       2.61500    2     ; C-C-N-C, prebuilt X-c2-na-X
  231     194     192     283         9       180.000       2.61500    2     ; C-C-N-C, prebuilt X-c2-na-X
  231     194     193     256         9       180.000       2.61500    2     ; C-C-N-C, prebuilt X-c2-na-X
  231     232     234     236         9       180.000      15.16700    2     ; C-C-C-C, prebuilt X-ca-ca-X
  231     232     234     274         9       180.000      15.16700    2     ; C-C-C-H, prebuilt X-ca-ca-X
  231     233     235     236         9       180.000      15.16700    2     ; C-C-C-C, prebuilt X-ca-ca-X
  231     233     235     281         9       180.000      15.16700    2     ; C-C-C-H, prebuilt X-ca-ca-X
  232     231     233     235         9       180.000      15.16700    2     ; C-C-C-C, prebuilt X-ca-ca-X
  232     231     233     275         9       180.000      15.16700    2     ; C-C-C-H, prebuilt X-ca-ca-X
  232     234     236     235         9       180.000      15.16700    2     ; C-C-C-C, prebuilt X-ca-ca-X
  232     234     236     237         9       180.000      15.16700    2     ; C-C-C-C, prebuilt X-ca-ca-X
  233     231     232     234         9       180.000      15.16700    2     ; C-C-C-C, prebuilt X-ca-ca-X
  233     231     232     273         9       180.000      15.16700    2     ; C-C-C-H, prebuilt X-ca-ca-X
  233     235     236     234         9       180.000      15.16700    2     ; C-C-C-C, prebuilt X-ca-ca-X
  233     235     236     237         9       180.000      15.16700    2     ; C-C-C-C, prebuilt X-ca-ca-X
  234     236     235     281         9       180.000      15.16700    2     ; C-C-C-H, prebuilt X-ca-ca-X
  234     236     237     238         9       180.000       2.92880    2     ; C-C-C-N, prebuilt X-c2-ca-X
  234     236     237     239         9       180.000       2.92880    2     ; C-C-C-N, prebuilt X-c2-ca-X
  235     236     234     274         9       180.000      15.16700    2     ; C-C-C-H, prebuilt X-ca-ca-X
  235     236     237     238         9       180.000       2.92880    2     ; C-C-C-N, prebuilt X-c2-ca-X
  235     236     237     239         9       180.000       2.92880    2     ; C-C-C-N, prebuilt X-c2-ca-X
  236     234     232     273         9       180.000      15.16700    2     ; C-C-C-H, prebuilt X-ca-ca-X
  236     235     233     275         9       180.000      15.16700    2     ; C-C-C-H, prebuilt X-ca-ca-X
  236     237     238     240         9       180.000       2.61500    2     ; C-C-N-C, prebuilt X-c2-na-X
  236     237     238     246         9       180.000       2.61500    2     ; C-C-N-C, prebuilt X-c2-na-X
  236     237     239     241         9       180.000       2.61500    2     ; C-C-N-C, prebuilt X-c2-na-X
  236     237     239     242         9       180.000       2.61500    2     ; C-C-N-C, prebuilt X-c2-na-X
  237     236     234     274         9       180.000      15.16700    2     ; C-C-C-H, prebuilt X-ca-ca-X
  237     236     235     281         9       180.000      15.16700    2     ; C-C-C-H, prebuilt X-ca-ca-X
  237     238     240     241         9       180.000       2.61500    2     ; C-N-C-C, prebuilt X-c2-na-X
  237     238     240     280         9       180.000       2.61500    2     ; C-N-C-H, prebuilt X-c2-na-X
  237     238     246     247         9       180.000       1.25520    2     ; C-N-C-C, prebuilt X-ca-na-X
  237     238     246     251         9       180.000       1.25520    2     ; C-N-C-C, prebuilt X-ca-na-X
  237     239     241     240         9       180.000       2.61500    2     ; C-N-C-C, prebuilt X-c2-na-X
  237     239     241     252         9       180.000       2.61500    2     ; C-N-C-C, prebuilt X-c2-na-X
  237     239     242     243         9         0.000       0.00000    2     ; C-N-C-H, prebuilt X-c3-na-X
  237     239     242     244         9         0.000       0.00000    2     ; C-N-C-H, prebuilt X-c3-na-X
  237     239     242     245         9         0.000       0.00000    2     ; C-N-C-H, prebuilt X-c3-na-X
  238     237     239     241         9       180.000       2.61500    2     ; N-C-N-C, prebuilt X-c2-na-X
  238     237     239     242         9       180.000       2.61500    2     ; N-C-N-C, prebuilt X-c2-na-X
  238     240     241     239         9       180.000      27.82360    2     ; N-C-C-N, prebuilt X-c2-c2-X
  238     240     241     252         9       180.000      27.82360    2     ; N-C-C-C, prebuilt X-c2-c2-X
  238     246     247     248         9       180.000      15.16700    2     ; N-C-C-C, prebuilt X-ca-ca-X
  238     246     247     277         9       180.000      15.16700    2     ; N-C-C-H, prebuilt X-ca-ca-X
  238     246     251     250         9       180.000      15.16700    2     ; N-C-C-C, prebuilt X-ca-ca-X
  238     246     251     279         9       180.000      15.16700    2     ; N-C-C-H, prebuilt X-ca-ca-X
  239     237     238     240         9       180.000       2.61500    2     ; N-C-N-C, prebuilt X-c2-na-X
  239     237     238     246         9       180.000       2.61500    2     ; N-C-N-C, prebuilt X-c2-na-X
  239     241     240     280         9       180.000      27.82360    2     ; N-C-C-H, prebuilt X-c2-c2-X
  239     241     252     253         9         0.000       0.00000    2     ; N-C-C-F, prebuilt X-c2-c3-X
  239     241     252     254         9         0.000       0.00000    2     ; N-C-C-F, prebuilt X-c2-c3-X
  239     241     252     255         9         0.000       0.00000    2     ; N-C-C-F, prebuilt X-c2-c3-X
  240     238     246     247         9       180.000       1.25520    2     ; C-N-C-C, prebuilt X-ca-na-X
  240     238     246     251         9       180.000       1.25520    2     ; C-N-C-C, prebuilt X-ca-na-X
  240     241     239     242         9       180.000       2.61500    2     ; C-C-N-C, prebuilt X-c2-na-X
  240     241     252     253         9         0.000       0.00000    2     ; C-C-C-F, prebuilt X-c2-c3-X
  240     241     252     254         9         0.000       0.00000    2     ; C-C-C-F, prebuilt X-c2-c3-X
  240     241     252     255         9         0.000       0.00000    2     ; C-C-C-F, prebuilt X-c2-c3-X
  241     239     242     243         9         0.000       0.00000    2     ; C-N-C-H, prebuilt X-c3-na-X
  241     239     242     244         9         0.000       0.00000    2     ; C-N-C-H, prebuilt X-c3-na-X
  241     239     242     245         9         0.000       0.00000    2     ; C-N-C-H, prebuilt X-c3-na-X
  241     240     238     246         9       180.000       2.61500    2     ; C-C-N-C, prebuilt X-c2-na-X
  242     239     241     252         9       180.000       2.61500    2     ; C-N-C-C, prebuilt X-c2-na-X
  246     238     240     280         9       180.000       2.61500    2     ; C-N-C-H, prebuilt X-c2-na-X
  246     247     248     249         9       180.000      15.16700    2     ; C-C-C-C, prebuilt X-ca-ca-X
  246     247     248     276         9       180.000      15.16700    2     ; C-C-C-H, prebuilt X-ca-ca-X
  246     251     250     249         9       180.000      15.16700    2     ; C-C-C-C, prebuilt X-ca-ca-X
  246     251     250     278         9       180.000      15.16700    2     ; C-C-C-H, prebuilt X-ca-ca-X
  247     246     251     250         9       180.000      15.16700    2     ; C-C-C-C, prebuilt X-ca-ca-X
  247     246     251     279         9       180.000      15.16700    2     ; C-C-C-H, prebuilt X-ca-ca-X
  247     248     249     250         9       180.000      15.16700    2     ; C-C-C-C, prebuilt X-ca-ca-X
  248     247     246     251         9       180.000      15.16700    2     ; C-C-C-C, prebuilt X-ca-ca-X
  248     249     250     251         9       180.000      15.16700    2     ; C-C-C-C, prebuilt X-ca-ca-X
  248     249     250     278         9       180.000      15.16700    2     ; C-C-C-H, prebuilt X-ca-ca-X
  249     248     247     277         9       180.000      15.16700    2     ; C-C-C-H, prebuilt X-ca-ca-X
  249     250     251     279         9       180.000      15.16700    2     ; C-C-C-H, prebuilt X-ca-ca-X
  250     249     248     276         9       180.000      15.16700    2     ; C-C-C-H, prebuilt X-ca-ca-X
  251     246     247     277         9       180.000      15.16700    2     ; C-C-C-H, prebuilt X-ca-ca-X
  252     241     240     280         9       180.000      27.82360    2     ; C-C-C-H, prebuilt X-c2-c2-X
  256     257     192     283         9       180.000       2.61500    2     ; C-C-N-C, prebuilt X-c2-na-X
  256     257     258     259         9         0.000       0.00000    2     ; C-C-C-F, prebuilt X-c2-c3-X
  256     257     258     260         9         0.000       0.00000    2     ; C-C-C-F, prebuilt X-c2-c3-X
  256     257     258     282         9         0.000       0.00000    2     ; C-C-C-F, prebuilt X-c2-c3-X
  257     192     283     284         9         0.000       0.00000    2     ; C-N-C-H, prebuilt X-c3-na-X
  257     192     283     285         9         0.000       0.00000    2     ; C-N-C-H, prebuilt X-c3-na-X
  257     192     283     286         9         0.000       0.00000    2     ; C-N-C-H, prebuilt X-c3-na-X
  258     257     192     283         9       180.000       2.61500    2     ; C-C-N-C, prebuilt X-c2-na-X
  258     257     256     261         9       180.000      27.82360    2     ; C-C-C-H, prebuilt X-c2-c2-X
  262     196     197     263         9       180.000      15.16700    2     ; H-C-C-H, prebuilt X-ca-ca-X
  264     200     199     265         9       180.000      15.16700    2     ; H-C-C-H, prebuilt X-ca-ca-X
  267     209     210     268         9       180.000      15.16700    2     ; H-C-C-H, prebuilt X-ca-ca-X
  269     214     216     271         9       180.000      15.16700    2     ; H-C-C-H, prebuilt X-ca-ca-X
  272     227     228     344         9       180.000      10.46000    2     ; O-C-N-C, prebuilt X-c-n-X
  273     232     234     274         9       180.000      15.16700    2     ; H-C-C-H, prebuilt X-ca-ca-X
  275     233     235     281         9       180.000      15.16700    2     ; H-C-C-H, prebuilt X-ca-ca-X
  276     248     247     277         9       180.000      15.16700    2     ; H-C-C-H, prebuilt X-ca-ca-X
  278     250     251     279         9       180.000      15.16700    2     ; H-C-C-H, prebuilt X-ca-ca-X
  287     289     288     290         9       180.000       2.61500    2     ; N-C-N-C, prebuilt X-c2-na-X
  287     289     288     351         9       180.000       2.61500    2     ; N-C-N-C, prebuilt X-c2-na-X
  287     289     326     327         9       180.000       2.92880    2     ; N-C-C-C, prebuilt X-c2-ca-X
  287     289     326     328         9       180.000       2.92880    2     ; N-C-C-C, prebuilt X-c2-ca-X
  287     352     351     288         9       180.000      27.82360    2     ; N-C-C-N, prebuilt X-c2-c2-X
  287     352     351     356         9       180.000      27.82360    2     ; N-C-C-H, prebuilt X-c2-c2-X
  287     352     353     354         9         0.000       0.00000    2     ; N-C-C-F, prebuilt X-c2-c3-X
  287     352     353     355         9         0.000       0.00000    2     ; N-C-C-F, prebuilt X-c2-c3-X
  287     352     353     377         9         0.000       0.00000    2     ; N-C-C-F, prebuilt X-c2-c3-X
  288     289     287     352         9       180.000       2.61500    2     ; N-C-N-C, prebuilt X-c2-na-X
  288     289     287     378         9       180.000       2.61500    2     ; N-C-N-C, prebuilt X-c2-na-X
  288     289     326     327         9       180.000       2.92880    2     ; N-C-C-C, prebuilt X-c2-ca-X
  288     289     326     328         9       180.000       2.92880    2     ; N-C-C-C, prebuilt X-c2-ca-X
  288     290     291     292         9       180.000      15.16700    2     ; N-C-C-C, prebuilt X-ca-ca-X
  288     290     291     357         9       180.000      15.16700    2     ; N-C-C-H, prebuilt X-ca-ca-X
  288     290     295     294         9       180.000      15.16700    2     ; N-C-C-C, prebuilt X-ca-ca-X
  288     290     295     359         9       180.000      15.16700    2     ; N-C-C-H, prebuilt X-ca-ca-X
  288     351     352     353         9       180.000      27.82360    2     ; N-C-C-C, prebuilt X-c2-c2-X
  289     287     352     351         9       180.000       2.61500    2     ; C-N-C-C, prebuilt X-c2-na-X
  289     287     352     353         9       180.000       2.61500    2     ; C-N-C-C, prebuilt X-c2-na-X
  289     287     378     379         9         0.000       0.00000    2     ; C-N-C-H, prebuilt X-c3-na-X
  289     287     378     380         9         0.000       0.00000    2     ; C-N-C-H, prebuilt X-c3-na-X
  289     287     378     381         9         0.000       0.00000    2     ; C-N-C-H, prebuilt X-c3-na-X
  289     288     290     291         9       180.000       1.25520    2     ; C-N-C-C, prebuilt X-ca-na-X
  289     288     290     295         9       180.000       1.25520    2     ; C-N-C-C, prebuilt X-ca-na-X
  289     288     351     352         9       180.000       2.61500    2     ; C-N-C-C, prebuilt X-c2-na-X
  289     288     351     356         9       180.000       2.61500    2     ; C-N-C-H, prebuilt X-c2-na-X
  289     326     327     329         9       180.000      15.16700    2     ; C-C-C-C, prebuilt X-ca-ca-X
  289     326     327     368         9       180.000      15.16700    2     ; C-C-C-H, prebuilt X-ca-ca-X
  289     326     328     330         9       180.000      15.16700    2     ; C-C-C-C, prebuilt X-ca-ca-X
  289     326     328     370         9       180.000      15.16700    2     ; C-C-C-H, prebuilt X-ca-ca-X
  290     288     289     326         9       180.000       2.61500    2     ; C-N-C-C, prebuilt X-c2-na-X
  290     288     351     352         9       180.000       2.61500    2     ; C-N-C-C, prebuilt X-c2-na-X
  290     288     351     356         9       180.000       2.61500    2     ; C-N-C-H, prebuilt X-c2-na-X
  290     291     292     293         9       180.000      15.16700    2     ; C-C-C-C, prebuilt X-ca-ca-X
  290     291     292     358         9       180.000      15.16700    2     ; C-C-C-H, prebuilt X-ca-ca-X
  290     295     294     293         9       180.000      15.16700    2     ; C-C-C-C, prebuilt X-ca-ca-X
  290     295     294     360         9       180.000      15.16700    2     ; C-C-C-H, prebuilt X-ca-ca-X
  291     290     288     351         9       180.000       1.25520    2     ; C-C-N-C, prebuilt X-ca-na-X
  291     290     295     294         9       180.000      15.16700    2     ; C-C-C-C, prebuilt X-ca-ca-X
  291     290     295     359         9       180.000      15.16700    2     ; C-C-C-H, prebuilt X-ca-ca-X
  291     292     293     294         9       180.000      15.16700    2     ; C-C-C-C, prebuilt X-ca-ca-X
  291     292     293     296         9       180.000      15.16700    2     ; C-C-C-N, prebuilt X-ca-ca-X
  292     291     290     295         9       180.000      15.16700    2     ; C-C-C-C, prebuilt X-ca-ca-X
  292     293     294     295         9       180.000      15.16700    2     ; C-C-C-C, prebuilt X-ca-ca-X
  292     293     294     360         9       180.000      15.16700    2     ; C-C-C-H, prebuilt X-ca-ca-X
  292     293     296     297         9       180.000       1.88280    2     ; C-C-N-C, prebuilt X-ca-n-X
  292     293     296     300         9       180.000       1.88280    2     ; C-C-N-C, prebuilt X-ca-n-X
  293     292     291     357         9       180.000      15.16700    2     ; C-C-C-H, prebuilt X-ca-ca-X
  293     294     295     359         9       180.000      15.16700    2     ; C-C-C-H, prebuilt X-ca-ca-X
  293     296     297     298         9       180.000      10.46000    2     ; C-N-C-C, prebuilt X-c-n-X
  293     296     297     321         9       180.000      10.46000    2     ; C-N-C-O, prebuilt X-c-n-X
  293     296     300     299         9       180.000      10.46000    2     ; C-N-C-C, prebuilt X-c-n-X
  293     296     300     301         9       180.000      10.46000    2     ; C-N-C-O, prebuilt X-c-n-X
  294     293     292     358         9       180.000      15.16700    2     ; C-C-C-H, prebuilt X-ca-ca-X
  294     293     296     297         9       180.000       1.88280    2     ; C-C-N-C, prebuilt X-ca-n-X
  294     293     296     300         9       180.000       1.88280    2     ; C-C-N-C, prebuilt X-ca-n-X
  295     290     288     351         9       180.000       1.25520    2     ; C-C-N-C, prebuilt X-ca-na-X
  295     290     291     357         9       180.000      15.16700    2     ; C-C-C-H, prebuilt X-ca-ca-X
  295     294     293     296         9       180.000      15.16700    2     ; C-C-C-N, prebuilt X-ca-ca-X
  296     293     292     358         9       180.000      15.16700    2     ; N-C-C-H, prebuilt X-ca-ca-X
  296     293     294     360         9       180.000      15.16700    2     ; N-C-C-H, prebuilt X-ca-ca-X
  296     297     298     299         9       180.000       4.18400    2     ; N-C-C-C, prebuilt X-c-ca-X
  296     297     298     302         9       180.000       4.18400    2     ; N-C-C-C, prebuilt X-c-ca-X
  296     300     299     298         9       180.000       4.18400    2     ; N-C-C-C, prebuilt X-c-ca-X
  296     300     299     305         9       180.000       4.18400    2     ; N-C-C-C, prebuilt X-c-ca-X
  297     296     300     299         9       180.000      10.46000    2     ; C-N-C-C, prebuilt X-c-n-X
  297     296     300     301         9       180.000      10.46000    2     ; C-N-C-O, prebuilt X-c-n-X
  297     298     299     300         9       180.000      15.16700    2     ; C-C-C-C, prebuilt X-ca-ca-X
  297     298     299     305         9       180.000      15.16700    2     ; C-C-C-C, prebuilt X-ca-ca-X
  297     298     302     303         9       180.000      15.16700    2     ; C-C-C-C, prebuilt X-ca-ca-X
  297     298     302     361         9       180.000      15.16700    2     ; C-C-C-H, prebuilt X-ca-ca-X
  298     297     296     300         9       180.000      10.46000    2     ; C-C-N-C, prebuilt X-c-n-X
  298     299     300     301         9       180.000       4.18400    2     ; C-C-C-O, prebuilt X-c-ca-X
  298     299     305     304         9       180.000      15.16700    2     ; C-C-C-C, prebuilt X-ca-ca-X
  298     299     305     363         9       180.000      15.16700    2     ; C-C-C-H, prebuilt X-ca-ca-X
  298     302     303     304         9       180.000      15.16700    2     ; C-C-C-C, prebuilt X-ca-ca-X
  298     302     303     312         9       180.000      15.16700    2     ; C-C-C-C, prebuilt X-ca-ca-X
  299     298     297     321         9       180.000       4.18400    2     ; C-C-C-O, prebuilt X-c-ca-X
  299     298     302     303         9       180.000      15.16700    2     ; C-C-C-C, prebuilt X-ca-ca-X
  299     298     302     361         9       180.000      15.16700    2     ; C-C-C-H, prebuilt X-ca-ca-X
  299     305     304     303         9       180.000      15.16700    2     ; C-C-C-C, prebuilt X-ca-ca-X
  299     305     304     362         9       180.000      15.16700    2     ; C-C-C-H, prebuilt X-ca-ca-X
  300     296     297     321         9       180.000      10.46000    2     ; C-N-C-O, prebuilt X-c-n-X
  300     299     298     302         9       180.000      15.16700    2     ; C-C-C-C, prebuilt X-ca-ca-X
  300     299     305     304         9       180.000      15.16700    2     ; C-C-C-C, prebuilt X-ca-ca-X
  300     299     305     363         9       180.000      15.16700    2     ; C-C-C-H, prebuilt X-ca-ca-X
  301     300     299     305         9       180.000       4.18400    2     ; O-C-C-C, prebuilt X-c-ca-X
  302     298     297     321         9       180.000       4.18400    2     ; C-C-C-O, prebuilt X-c-ca-X
  302     298     299     305         9       180.000      15.16700    2     ; C-C-C-C, prebuilt X-ca-ca-X
  302     303     304     305         9       180.000      15.16700    2     ; C-C-C-C, prebuilt X-ca-ca-X
  302     303     304     362         9       180.000      15.16700    2     ; C-C-C-H, prebuilt X-ca-ca-X
  302     303     312     306         9         0.000       0.00000    2     ; C-C-C-C, prebuilt X-c3-ca-X
  302     303     312     313         9         0.000       0.00000    2     ; C-C-C-C, prebuilt X-c3-ca-X
  302     303     312     317         9         0.000       0.00000    2     ; C-C-C-C, prebuilt X-c3-ca-X
  303     304     305     363         9       180.000      15.16700    2     ; C-C-C-H, prebuilt X-ca-ca-X
  303     312     306     307         9         0.000       0.00000    2     ; C-C-C-C, prebuilt X-c3-ca-X
  303     312     306     309         9         0.000       0.00000    2     ; C-C-C-C, prebuilt X-c3-ca-X
  303     312     313     314         9         0.000       0.65084    3     ; C-C-C-F, prebuilt X-c3-c3-X
  303     312     313     315         9         0.000       0.65084    3     ; C-C-C-F, prebuilt X-c3-c3-X
  303     312     313     316         9         0.000       0.65084    3     ; C-C-C-F, prebuilt X-c3-c3-X
  303     312     317     318         9         0.000       0.65084    3     ; C-C-C-F, prebuilt X-c3-c3-X
  303     312     317     319         9         0.000       0.65084    3     ; C-C-C-F, prebuilt X-c3-c3-X
  303     312     317     320         9         0.000       0.65084    3     ; C-C-C-F, prebuilt X-c3-c3-X
  304     303     302     361         9       180.000      15.16700    2     ; C-C-C-H, prebuilt X-ca-ca-X
  304     303     312     306         9         0.000       0.00000    2     ; C-C-C-C, prebuilt X-c3-ca-X
  304     303     312     313         9         0.000       0.00000    2     ; C-C-C-C, prebuilt X-c3-ca-X
  304     303     312     317         9         0.000       0.00000    2     ; C-C-C-C, prebuilt X-c3-ca-X
  305     304     303     312         9       180.000      15.16700    2     ; C-C-C-C, prebuilt X-ca-ca-X
  306     307     308     310         9       180.000      15.16700    2     ; C-C-C-C, prebuilt X-ca-ca-X
  306     307     308     322         9       180.000      15.16700    2     ; C-C-C-C, prebuilt X-ca-ca-X
  306     309     311     310         9       180.000      15.16700    2     ; C-C-C-C, prebuilt X-ca-ca-X
  306     309     311     366         9       180.000      15.16700    2     ; C-C-C-H, prebuilt X-ca-ca-X
  306     312     313     314         9         0.000       0.65084    3     ; C-C-C-F, prebuilt X-c3-c3-X
  306     312     313     315         9         0.000       0.65084    3     ; C-C-C-F, prebuilt X-c3-c3-X
  306     312     313     316         9         0.000       0.65084    3     ; C-C-C-F, prebuilt X-c3-c3-X
  306     312     317     318         9         0.000       0.65084    3     ; C-C-C-F, prebuilt X-c3-c3-X
  306     312     317     319         9         0.000       0.65084    3     ; C-C-C-F, prebuilt X-c3-c3-X
  306     312     317     320         9         0.000       0.65084    3     ; C-C-C-F, prebuilt X-c3-c3-X
  307     306     309     311         9       180.000      15.16700    2     ; C-C-C-C, prebuilt X-ca-ca-X
  307     306     309     364         9       180.000      15.16700    2     ; C-C-C-H, prebuilt X-ca-ca-X
  307     306     312     313         9         0.000       0.00000    2     ; C-C-C-C, prebuilt X-c3-ca-X
  307     306     312     317         9         0.000       0.00000    2     ; C-C-C-C, prebuilt X-c3-ca-X
  307     308     310     311         9       180.000      15.16700    2     ; C-C-C-C, prebuilt X-ca-ca-X
  307     308     310     324         9       180.000      15.16700    2     ; C-C-C-C, prebuilt X-ca-ca-X
  307     308     322     323         9       180.000       4.18400    2     ; C-C-C-N, prebuilt X-c-ca-X
  307     308     322     367         9       180.000       4.18400    2     ; C-C-C-O, prebuilt X-c-ca-X
  308     307     306     309         9       180.000      15.16700    2     ; C-C-C-C, prebuilt X-ca-ca-X
  308     307     306     312         9       180.000      15.16700    2     ; C-C-C-C, prebuilt X-ca-ca-X
  308     310     311     309         9       180.000      15.16700    2     ; C-C-C-C, prebuilt X-ca-ca-X
  308     310     311     366         9       180.000      15.16700    2     ; C-C-C-H, prebuilt X-ca-ca-X
  308     310     324     323         9       180.000       4.18400    2     ; C-C-C-N, prebuilt X-c-ca-X
  308     310     324     325         9       180.000       4.18400    2     ; C-C-C-O, prebuilt X-c-ca-X
  308     322     323     324         9       180.000      10.46000    2     ; C-C-N-C, prebuilt X-c-n-X
  308     322     323     439         9       180.000      10.46000    2     ; C-C-N-C, prebuilt X-c-n-X
  309     306     307     365         9       180.000      15.16700    2     ; C-C-C-H, prebuilt X-ca-ca-X
  309     306     312     313         9         0.000       0.00000    2     ; C-C-C-C, prebuilt X-c3-ca-X
  309     306     312     317         9         0.000       0.00000    2     ; C-C-C-C, prebuilt X-c3-ca-X
  309     311     310     324         9       180.000      15.16700    2     ; C-C-C-C, prebuilt X-ca-ca-X
  310     308     307     365         9       180.000      15.16700    2     ; C-C-C-H, prebuilt X-ca-ca-X
  310     308     322     323         9       180.000       4.18400    2     ; C-C-C-N, prebuilt X-c-ca-X
  310     308     322     367         9       180.000       4.18400    2     ; C-C-C-O, prebuilt X-c-ca-X
  310     311     309     364         9       180.000      15.16700    2     ; C-C-C-H, prebuilt X-ca-ca-X
  310     324     323     322         9       180.000      10.46000    2     ; C-C-N-C, prebuilt X-c-n-X
  310     324     323     439         9       180.000      10.46000    2     ; C-C-N-C, prebuilt X-c-n-X
  311     309     306     312         9       180.000      15.16700    2     ; C-C-C-C, prebuilt X-ca-ca-X
  311     310     308     322         9       180.000      15.16700    2     ; C-C-C-C, prebuilt X-ca-ca-X
  311     310     324     323         9       180.000       4.18400    2     ; C-C-C-N, prebuilt X-c-ca-X
  311     310     324     325         9       180.000       4.18400    2     ; C-C-C-O, prebuilt X-c-ca-X
  312     303     302     361         9       180.000      15.16700    2     ; C-C-C-H, prebuilt X-ca-ca-X
  312     303     304     362         9       180.000      15.16700    2     ; C-C-C-H, prebuilt X-ca-ca-X
  312     306     307     365         9       180.000      15.16700    2     ; C-C-C-H, prebuilt X-ca-ca-X
  312     306     309     364         9       180.000      15.16700    2     ; C-C-C-H, prebuilt X-ca-ca-X
  313     312     317     318         9         0.000       0.65084    3     ; C-C-C-F, prebuilt X-c3-c3-X
  313     312     317     319         9         0.000       0.65084    3     ; C-C-C-F, prebuilt X-c3-c3-X
  313     312     317     320         9         0.000       0.65084    3     ; C-C-C-F, prebuilt X-c3-c3-X
  314     313     312     317         9         0.000       0.65084    3     ; F-C-C-C, prebuilt X-c3-c3-X
  315     313     312     317         9         0.000       0.65084    3     ; F-C-C-C, prebuilt X-c3-c3-X
  316     313     312     317         9         0.000       0.65084    3     ; F-C-C-C, prebuilt X-c3-c3-X
  322     308     307     365         9       180.000      15.16700    2     ; C-C-C-H, prebuilt X-ca-ca-X
  322     308     310     324         9       180.000      15.16700    2     ; C-C-C-C, prebuilt X-ca-ca-X
  322     323     324     325         9       180.000      10.46000    2     ; C-N-C-O, prebuilt X-c-n-X
  322     323     439     438         9       180.000       1.88280    2     ; C-N-C-C, prebuilt X-ca-n-X
  322     323     439     440         9       180.000       1.88280    2     ; C-N-C-C, prebuilt X-ca-n-X
  323     439     438     437         9       180.000      15.16700    2     ; N-C-C-C, prebuilt X-ca-ca-X
  323     439     438     466         9       180.000      15.16700    2     ; N-C-C-H, prebuilt X-ca-ca-X
  323     439     440     441         9       180.000      15.16700    2     ; N-C-C-C, prebuilt X-ca-ca-X
  323     439     440     468         9       180.000      15.16700    2     ; N-C-C-H, prebuilt X-ca-ca-X
  324     310     311     366         9       180.000      15.16700    2     ; C-C-C-H, prebuilt X-ca-ca-X
  324     323     322     367         9       180.000      10.46000    2     ; C-N-C-O, prebuilt X-c-n-X
  324     323     439     438         9       180.000       1.88280    2     ; C-N-C-C, prebuilt X-ca-n-X
  324     323     439     440         9       180.000       1.88280    2     ; C-N-C-C, prebuilt X-ca-n-X
  325     324     323     439         9       180.000      10.46000    2     ; O-C-N-C, prebuilt X-c-n-X
  326     289     287     352         9       180.000       2.61500    2     ; C-C-N-C, prebuilt X-c2-na-X
  326     289     287     378         9       180.000       2.61500    2     ; C-C-N-C, prebuilt X-c2-na-X
  326     289     288     351         9       180.000       2.61500    2     ; C-C-N-C, prebuilt X-c2-na-X
  326     327     329     331         9       180.000      15.16700    2     ; C-C-C-C, prebuilt X-ca-ca-X
  326     327     329     369         9       180.000      15.16700    2     ; C-C-C-H, prebuilt X-ca-ca-X
  326     328     330     331         9       180.000      15.16700    2     ; C-C-C-C, prebuilt X-ca-ca-X
  326     328     330     376         9       180.000      15.16700    2     ; C-C-C-H, prebuilt X-ca-ca-X
  327     326     328     330         9       180.000      15.16700    2     ; C-C-C-C, prebuilt X-ca-ca-X
  327     326     328     370         9       180.000      15.16700    2     ; C-C-C-H, prebuilt X-ca-ca-X
  327     329     331     330         9       180.000      15.16700    2     ; C-C-C-C, prebuilt X-ca-ca-X
  327     329     331     332         9       180.000      15.16700    2     ; C-C-C-C, prebuilt X-ca-ca-X
  328     326     327     329         9       180.000      15.16700    2     ; C-C-C-C, prebuilt X-ca-ca-X
  328     326     327     368         9       180.000      15.16700    2     ; C-C-C-H, prebuilt X-ca-ca-X
  328     330     331     329         9       180.000      15.16700    2     ; C-C-C-C, prebuilt X-ca-ca-X
  328     330     331     332         9       180.000      15.16700    2     ; C-C-C-C, prebuilt X-ca-ca-X
  329     331     330     376         9       180.000      15.16700    2     ; C-C-C-H, prebuilt X-ca-ca-X
  329     331     332     333         9       180.000       2.92880    2     ; C-C-C-N, prebuilt X-c2-ca-X
  329     331     332     334         9       180.000       2.92880    2     ; C-C-C-N, prebuilt X-c2-ca-X
  330     331     329     369         9       180.000      15.16700    2     ; C-C-C-H, prebuilt X-ca-ca-X
  330     331     332     333         9       180.000       2.92880    2     ; C-C-C-N, prebuilt X-c2-ca-X
  330     331     332     334         9       180.000       2.92880    2     ; C-C-C-N, prebuilt X-c2-ca-X
  331     329     327     368         9       180.000      15.16700    2     ; C-C-C-H, prebuilt X-ca-ca-X
  331     330     328     370         9       180.000      15.16700    2     ; C-C-C-H, prebuilt X-ca-ca-X
  331     332     333     335         9       180.000       2.61500    2     ; C-C-N-C, prebuilt X-c2-na-X
  331     332     333     341         9       180.000       2.61500    2     ; C-C-N-C, prebuilt X-c2-na-X
  331     332     334     336         9       180.000       2.61500    2     ; C-C-N-C, prebuilt X-c2-na-X
  331     332     334     337         9       180.000       2.61500    2     ; C-C-N-C, prebuilt X-c2-na-X
  332     331     329     369         9       180.000      15.16700    2     ; C-C-C-H, prebuilt X-ca-ca-X
  332     331     330     376         9       180.000      15.16700    2     ; C-C-C-H, prebuilt X-ca-ca-X
  332     333     335     336         9       180.000       2.61500    2     ; C-N-C-C, prebuilt X-c2-na-X
  332     333     335     375         9       180.000       2.61500    2     ; C-N-C-H, prebuilt X-c2-na-X
  332     333     341     342         9       180.000       1.25520    2     ; C-N-C-C, prebuilt X-ca-na-X
  332     333     341     346         9       180.000       1.25520    2     ; C-N-C-C, prebuilt X-ca-na-X
  332     334     336     335         9       180.000       2.61500    2     ; C-N-C-C, prebuilt X-c2-na-X
  332     334     336     347         9       180.000       2.61500    2     ; C-N-C-C, prebuilt X-c2-na-X
  332     334     337     338         9         0.000       0.00000    2     ; C-N-C-H, prebuilt X-c3-na-X
  332     334     337     339         9         0.000       0.00000    2     ; C-N-C-H, prebuilt X-c3-na-X
  332     334     337     340         9         0.000       0.00000    2     ; C-N-C-H, prebuilt X-c3-na-X
  333     332     334     336         9       180.000       2.61500    2     ; N-C-N-C, prebuilt X-c2-na-X
  333     332     334     337         9       180.000       2.61500    2     ; N-C-N-C, prebuilt X-c2-na-X
  333     335     336     334         9       180.000      27.82360    2     ; N-C-C-N, prebuilt X-c2-c2-X
  333     335     336     347         9       180.000      27.82360    2     ; N-C-C-C, prebuilt X-c2-c2-X
  333     341     342     343         9       180.000      15.16700    2     ; N-C-C-C, prebuilt X-ca-ca-X
  333     341     342     372         9       180.000      15.16700    2     ; N-C-C-H, prebuilt X-ca-ca-X
  333     341     346     345         9       180.000      15.16700    2     ; N-C-C-C, prebuilt X-ca-ca-X
  333     341     346     374         9       180.000      15.16700    2     ; N-C-C-H, prebuilt X-ca-ca-X
  334     332     333     335         9       180.000       2.61500    2     ; N-C-N-C, prebuilt X-c2-na-X
  334     332     333     341         9       180.000       2.61500    2     ; N-C-N-C, prebuilt X-c2-na-X
  334     336     335     375         9       180.000      27.82360    2     ; N-C-C-H, prebuilt X-c2-c2-X
  334     336     347     348         9         0.000       0.00000    2     ; N-C-C-F, prebuilt X-c2-c3-X
  334     336     347     349         9         0.000       0.00000    2     ; N-C-C-F, prebuilt X-c2-c3-X
  334     336     347     350         9         0.000       0.00000    2     ; N-C-C-F, prebuilt X-c2-c3-X
  335     333     341     342         9       180.000       1.25520    2     ; C-N-C-C, prebuilt X-ca-na-X
  335     333     341     346         9       180.000       1.25520    2     ; C-N-C-C, prebuilt X-ca-na-X
  335     336     334     337         9       180.000       2.61500    2     ; C-C-N-C, prebuilt X-c2-na-X
  335     336     347     348         9         0.000       0.00000    2     ; C-C-C-F, prebuilt X-c2-c3-X
  335     336     347     349         9         0.000       0.00000    2     ; C-C-C-F, prebuilt X-c2-c3-X
  335     336     347     350         9         0.000       0.00000    2     ; C-C-C-F, prebuilt X-c2-c3-X
  336     334     337     338         9         0.000       0.00000    2     ; C-N-C-H, prebuilt X-c3-na-X
  336     334     337     339         9         0.000       0.00000    2     ; C-N-C-H, prebuilt X-c3-na-X
  336     334     337     340         9         0.000       0.00000    2     ; C-N-C-H, prebuilt X-c3-na-X
  336     335     333     341         9       180.000       2.61500    2     ; C-C-N-C, prebuilt X-c2-na-X
  337     334     336     347         9       180.000       2.61500    2     ; C-N-C-C, prebuilt X-c2-na-X
  341     333     335     375         9       180.000       2.61500    2     ; C-N-C-H, prebuilt X-c2-na-X
  341     342     343     344         9       180.000      15.16700    2     ; C-C-C-C, prebuilt X-ca-ca-X
  341     342     343     371         9       180.000      15.16700    2     ; C-C-C-H, prebuilt X-ca-ca-X
  341     346     345     344         9       180.000      15.16700    2     ; C-C-C-C, prebuilt X-ca-ca-X
  341     346     345     373         9       180.000      15.16700    2     ; C-C-C-H, prebuilt X-ca-ca-X
  342     341     346     345         9       180.000      15.16700    2     ; C-C-C-C, prebuilt X-ca-ca-X
  342     341     346     374         9       180.000      15.16700    2     ; C-C-C-H, prebuilt X-ca-ca-X
  342     343     344     345         9       180.000      15.16700    2     ; C-C-C-C, prebuilt X-ca-ca-X
  343     342     341     346         9       180.000      15.16700    2     ; C-C-C-C, prebuilt X-ca-ca-X
  343     344     345     346         9       180.000      15.16700    2     ; C-C-C-C, prebuilt X-ca-ca-X
  343     344     345     373         9       180.000      15.16700    2     ; C-C-C-H, prebuilt X-ca-ca-X
  344     343     342     372         9       180.000      15.16700    2     ; C-C-C-H, prebuilt X-ca-ca-X
  344     345     346     374         9       180.000      15.16700    2     ; C-C-C-H, prebuilt X-ca-ca-X
  345     344     343     371         9       180.000      15.16700    2     ; C-C-C-H, prebuilt X-ca-ca-X
  346     341     342     372         9       180.000      15.16700    2     ; C-C-C-H, prebuilt X-ca-ca-X
  347     336     335     375         9       180.000      27.82360    2     ; C-C-C-H, prebuilt X-c2-c2-X
  351     352     287     378         9       180.000       2.61500    2     ; C-C-N-C, prebuilt X-c2-na-X
  351     352     353     354         9         0.000       0.00000    2     ; C-C-C-F, prebuilt X-c2-c3-X
  351     352     353     355         9         0.000       0.00000    2     ; C-C-C-F, prebuilt X-c2-c3-X
  351     352     353     377         9         0.000       0.00000    2     ; C-C-C-F, prebuilt X-c2-c3-X
  352     287     378     379         9         0.000       0.00000    2     ; C-N-C-H, prebuilt X-c3-na-X
  352     287     378     380         9         0.000       0.00000    2     ; C-N-C-H, prebuilt X-c3-na-X
  352     287     378     381         9         0.000       0.00000    2     ; C-N-C-H, prebuilt X-c3-na-X
  353     352     287     378         9       180.000       2.61500    2     ; C-C-N-C, prebuilt X-c2-na-X
  353     352     351     356         9       180.000      27.82360    2     ; C-C-C-H, prebuilt X-c2-c2-X
  357     291     292     358         9       180.000      15.16700    2     ; H-C-C-H, prebuilt X-ca-ca-X
  359     295     294     360         9       180.000      15.16700    2     ; H-C-C-H, prebuilt X-ca-ca-X
  362     304     305     363         9       180.000      15.16700    2     ; H-C-C-H, prebuilt X-ca-ca-X
  364     309     311     366         9       180.000      15.16700    2     ; H-C-C-H, prebuilt X-ca-ca-X
  367     322     323     439         9       180.000      10.46000    2     ; O-C-N-C, prebuilt X-c-n-X
  368     327     329     369         9       180.000      15.16700    2     ; H-C-C-H, prebuilt X-ca-ca-X
  370     328     330     376         9       180.000      15.16700    2     ; H-C-C-H, prebuilt X-ca-ca-X
  371     343     342     372         9       180.000      15.16700    2     ; H-C-C-H, prebuilt X-ca-ca-X
  373     345     346     374         9       180.000      15.16700    2     ; H-C-C-H, prebuilt X-ca-ca-X
  382     384     383     385         9       180.000       2.61500    2     ; N-C-N-C, prebuilt X-c2-na-X
  382     384     383     446         9       180.000       2.61500    2     ; N-C-N-C, prebuilt X-c2-na-X
  382     384     421     422         9       180.000       2.92880    2     ; N-C-C-C, prebuilt X-c2-ca-X
  382     384     421     423         9       180.000       2.92880    2     ; N-C-C-C, prebuilt X-c2-ca-X
  382     447     446     383         9       180.000      27.82360    2     ; N-C-C-N, prebuilt X-c2-c2-X
  382     447     446     451         9       180.000      27.82360    2     ; N-C-C-H, prebuilt X-c2-c2-X
  382     447     448     449         9         0.000       0.00000    2     ; N-C-C-F, prebuilt X-c2-c3-X
  382     447     448     450         9         0.000       0.00000    2     ; N-C-C-F, prebuilt X-c2-c3-X
  382     447     448     472         9         0.000       0.00000    2     ; N-C-C-F, prebuilt X-c2-c3-X
  383     384     382     447         9       180.000       2.61500    2     ; N-C-N-C, prebuilt X-c2-na-X
  383     384     382     473         9       180.000       2.61500    2     ; N-C-N-C, prebuilt X-c2-na-X
  383     384     421     422         9       180.000       2.92880    2     ; N-C-C-C, prebuilt X-c2-ca-X
  383     384     421     423         9       180.000       2.92880    2     ; N-C-C-C, prebuilt X-c2-ca-X
  383     385     386     387         9       180.000      15.16700    2     ; N-C-C-C, prebuilt X-ca-ca-X
  383     385     386     452         9       180.000      15.16700    2     ; N-C-C-H, prebuilt X-ca-ca-X
  383     385     390     389         9       180.000      15.16700    2     ; N-C-C-C, prebuilt X-ca-ca-X
  383     385     390     454         9       180.000      15.16700    2     ; N-C-C-H, prebuilt X-ca-ca-X
  383     446     447     448         9       180.000      27.82360    2     ; N-C-C-C, prebuilt X-c2-c2-X
  384     382     447     446         9       180.000       2.61500    2     ; C-N-C-C, prebuilt X-c2-na-X
  384     382     447     448         9       180.000       2.61500    2     ; C-N-C-C, prebuilt X-c2-na-X
  384     382     473     474         9         0.000       0.00000    2     ; C-N-C-H, prebuilt X-c3-na-X
  384     382     473     475         9         0.000       0.00000    2     ; C-N-C-H, prebuilt X-c3-na-X
  384     382     473     476         9         0.000       0.00000    2     ; C-N-C-H, prebuilt X-c3-na-X
  384     383     385     386         9       180.000       1.25520    2     ; C-N-C-C, prebuilt X-ca-na-X
  384     383     385     390         9       180.000       1.25520    2     ; C-N-C-C, prebuilt X-ca-na-X
  384     383     446     447         9       180.000       2.61500    2     ; C-N-C-C, prebuilt X-c2-na-X
  384     383     446     451         9       180.000       2.61500    2     ; C-N-C-H, prebuilt X-c2-na-X
  384     421     422     424         9       180.000      15.16700    2     ; C-C-C-C, prebuilt X-ca-ca-X
  384     421     422     463         9       180.000      15.16700    2     ; C-C-C-H, prebuilt X-ca-ca-X
  384     421     423     425         9       180.000      15.16700    2     ; C-C-C-C, prebuilt X-ca-ca-X
  384     421     423     465         9       180.000      15.16700    2     ; C-C-C-H, prebuilt X-ca-ca-X
  385     383     384     421         9       180.000       2.61500    2     ; C-N-C-C, prebuilt X-c2-na-X
  385     383     446     447         9       180.000       2.61500    2     ; C-N-C-C, prebuilt X-c2-na-X
  385     383     446     451         9       180.000       2.61500    2     ; C-N-C-H, prebuilt X-c2-na-X
  385     386     387     388         9       180.000      15.16700    2     ; C-C-C-C, prebuilt X-ca-ca-X
  385     386     387     453         9       180.000      15.16700    2     ; C-C-C-H, prebuilt X-ca-ca-X
  385     390     389     388         9       180.000      15.16700    2     ; C-C-C-C, prebuilt X-ca-ca-X
  385     390     389     455         9       180.000      15.16700    2     ; C-C-C-H, prebuilt X-ca-ca-X
  386     385     383     446         9       180.000       1.25520    2     ; C-C-N-C, prebuilt X-ca-na-X
  386     385     390     389         9       180.000      15.16700    2     ; C-C-C-C, prebuilt X-ca-ca-X
  386     385     390     454         9       180.000      15.16700    2     ; C-C-C-H, prebuilt X-ca-ca-X
  386     387     388     389         9       180.000      15.16700    2     ; C-C-C-C, prebuilt X-ca-ca-X
  386     387     388     391         9       180.000      15.16700    2     ; C-C-C-N, prebuilt X-ca-ca-X
  387     386     385     390         9       180.000      15.16700    2     ; C-C-C-C, prebuilt X-ca-ca-X
  387     388     389     390         9       180.000      15.16700    2     ; C-C-C-C, prebuilt X-ca-ca-X
  387     388     389     455         9       180.000      15.16700    2     ; C-C-C-H, prebuilt X-ca-ca-X
  387     388     391     392         9       180.000       1.88280    2     ; C-C-N-C, prebuilt X-ca-n-X
  387     388     391     395         9       180.000       1.88280    2     ; C-C-N-C, prebuilt X-ca-n-X
  388     387     386     452         9       180.000      15.16700    2     ; C-C-C-H, prebuilt X-ca-ca-X
  388     389     390     454         9       180.000      15.16700    2     ; C-C-C-H, prebuilt X-ca-ca-X
  388     391     392     393         9       180.000      10.46000    2     ; C-N-C-C, prebuilt X-c-n-X
  388     391     392     416         9       180.000      10.46000    2     ; C-N-C-O, prebuilt X-c-n-X
  388     391     395     394         9       180.000      10.46000    2     ; C-N-C-C, prebuilt X-c-n-X
  388     391     395     396         9       180.000      10.46000    2     ; C-N-C-O, prebuilt X-c-n-X
  389     388     387     453         9       180.000      15.16700    2     ; C-C-C-H, prebuilt X-ca-ca-X
  389     388     391     392         9       180.000       1.88280    2     ; C-C-N-C, prebuilt X-ca-n-X
  389     388     391     395         9       180.000       1.88280    2     ; C-C-N-C, prebuilt X-ca-n-X
  390     385     383     446         9       180.000       1.25520    2     ; C-C-N-C, prebuilt X-ca-na-X
  390     385     386     452         9       180.000      15.16700    2     ; C-C-C-H, prebuilt X-ca-ca-X
  390     389     388     391         9       180.000      15.16700    2     ; C-C-C-N, prebuilt X-ca-ca-X
  391     388     387     453         9       180.000      15.16700    2     ; N-C-C-H, prebuilt X-ca-ca-X
  391     388     389     455         9       180.000      15.16700    2     ; N-C-C-H, prebuilt X-ca-ca-X
  391     392     393     394         9       180.000       4.18400    2     ; N-C-C-C, prebuilt X-c-ca-X
  391     392     393     397         9       180.000       4.18400    2     ; N-C-C-C, prebuilt X-c-ca-X
  391     395     394     393         9       180.000       4.18400    2     ; N-C-C-C, prebuilt X-c-ca-X
  391     395     394     400         9       180.000       4.18400    2     ; N-C-C-C, prebuilt X-c-ca-X
  392     391     395     394         9       180.000      10.46000    2     ; C-N-C-C, prebuilt X-c-n-X
  392     391     395     396         9       180.000      10.46000    2     ; C-N-C-O, prebuilt X-c-n-X
  392     393     394     395         9       180.000      15.16700    2     ; C-C-C-C, prebuilt X-ca-ca-X
  392     393     394     400         9       180.000      15.16700    2     ; C-C-C-C, prebuilt X-ca-ca-X
  392     393     397     398         9       180.000      15.16700    2     ; C-C-C-C, prebuilt X-ca-ca-X
  392     393     397     456         9       180.000      15.16700    2     ; C-C-C-H, prebuilt X-ca-ca-X
  393     392     391     395         9       180.000      10.46000    2     ; C-C-N-C, prebuilt X-c-n-X
  393     394     395     396         9       180.000       4.18400    2     ; C-C-C-O, prebuilt X-c-ca-X
  393     394     400     399         9       180.000      15.16700    2     ; C-C-C-C, prebuilt X-ca-ca-X
  393     394     400     458         9       180.000      15.16700    2     ; C-C-C-H, prebuilt X-ca-ca-X
  393     397     398     399         9       180.000      15.16700    2     ; C-C-C-C, prebuilt X-ca-ca-X
  393     397     398     407         9       180.000      15.16700    2     ; C-C-C-C, prebuilt X-ca-ca-X
  394     393     392     416         9       180.000       4.18400    2     ; C-C-C-O, prebuilt X-c-ca-X
  394     393     397     398         9       180.000      15.16700    2     ; C-C-C-C, prebuilt X-ca-ca-X
  394     393     397     456         9       180.000      15.16700    2     ; C-C-C-H, prebuilt X-ca-ca-X
  394     400     399     398         9       180.000      15.16700    2     ; C-C-C-C, prebuilt X-ca-ca-X
  394     400     399     457         9       180.000      15.16700    2     ; C-C-C-H, prebuilt X-ca-ca-X
  395     391     392     416         9       180.000      10.46000    2     ; C-N-C-O, prebuilt X-c-n-X
  395     394     393     397         9       180.000      15.16700    2     ; C-C-C-C, prebuilt X-ca-ca-X
  395     394     400     399         9       180.000      15.16700    2     ; C-C-C-C, prebuilt X-ca-ca-X
  395     394     400     458         9       180.000      15.16700    2     ; C-C-C-H, prebuilt X-ca-ca-X
  396     395     394     400         9       180.000       4.18400    2     ; O-C-C-C, prebuilt X-c-ca-X
  397     393     392     416         9       180.000       4.18400    2     ; C-C-C-O, prebuilt X-c-ca-X
  397     393     394     400         9       180.000      15.16700    2     ; C-C-C-C, prebuilt X-ca-ca-X
  397     398     399     400         9       180.000      15.16700    2     ; C-C-C-C, prebuilt X-ca-ca-X
  397     398     399     457         9       180.000      15.16700    2     ; C-C-C-H, prebuilt X-ca-ca-X
  397     398     407     401         9         0.000       0.00000    2     ; C-C-C-C, prebuilt X-c3-ca-X
  397     398     407     408         9         0.000       0.00000    2     ; C-C-C-C, prebuilt X-c3-ca-X
  397     398     407     412         9         0.000       0.00000    2     ; C-C-C-C, prebuilt X-c3-ca-X
  398     399     400     458         9       180.000      15.16700    2     ; C-C-C-H, prebuilt X-ca-ca-X
  398     407     401     402         9         0.000       0.00000    2     ; C-C-C-C, prebuilt X-c3-ca-X
  398     407     401     404         9         0.000       0.00000    2     ; C-C-C-C, prebuilt X-c3-ca-X
  398     407     408     409         9         0.000       0.65084    3     ; C-C-C-F, prebuilt X-c3-c3-X
  398     407     408     410         9         0.000       0.65084    3     ; C-C-C-F, prebuilt X-c3-c3-X
  398     407     408     411         9         0.000       0.65084    3     ; C-C-C-F, prebuilt X-c3-c3-X
  398     407     412     413         9         0.000       0.65084    3     ; C-C-C-F, prebuilt X-c3-c3-X
  398     407     412     414         9         0.000       0.65084    3     ; C-C-C-F, prebuilt X-c3-c3-X
  398     407     412     415         9         0.000       0.65084    3     ; C-C-C-F, prebuilt X-c3-c3-X
  399     398     397     456         9       180.000      15.16700    2     ; C-C-C-H, prebuilt X-ca-ca-X
  399     398     407     401         9         0.000       0.00000    2     ; C-C-C-C, prebuilt X-c3-ca-X
  399     398     407     408         9         0.000       0.00000    2     ; C-C-C-C, prebuilt X-c3-ca-X
  399     398     407     412         9         0.000       0.00000    2     ; C-C-C-C, prebuilt X-c3-ca-X
  400     399     398     407         9       180.000      15.16700    2     ; C-C-C-C, prebuilt X-ca-ca-X
  401     402     403     405         9       180.000      15.16700    2     ; C-C-C-C, prebuilt X-ca-ca-X
  401     402     403     417         9       180.000      15.16700    2     ; C-C-C-C, prebuilt X-ca-ca-X
  401     404     406     405         9       180.000      15.16700    2     ; C-C-C-C, prebuilt X-ca-ca-X
  401     404     406     461         9       180.000      15.16700    2     ; C-C-C-H, prebuilt X-ca-ca-X
  401     407     408     409         9         0.000       0.65084    3     ; C-C-C-F, prebuilt X-c3-c3-X
  401     407     408     410         9         0.000       0.65084    3     ; C-C-C-F, prebuilt X-c3-c3-X
  401     407     408     411         9         0.000       0.65084    3     ; C-C-C-F, prebuilt X-c3-c3-X
  401     407     412     413         9         0.000       0.65084    3     ; C-C-C-F, prebuilt X-c3-c3-X
  401     407     412     414         9         0.000       0.65084    3     ; C-C-C-F, prebuilt X-c3-c3-X
  401     407     412     415         9         0.000       0.65084    3     ; C-C-C-F, prebuilt X-c3-c3-X
  402     401     404     406         9       180.000      15.16700    2     ; C-C-C-C, prebuilt X-ca-ca-X
  402     401     404     459         9       180.000      15.16700    2     ; C-C-C-H, prebuilt X-ca-ca-X
  402     401     407     408         9         0.000       0.00000    2     ; C-C-C-C, prebuilt X-c3-ca-X
  402     401     407     412         9         0.000       0.00000    2     ; C-C-C-C, prebuilt X-c3-ca-X
  402     403     405     406         9       180.000      15.16700    2     ; C-C-C-C, prebuilt X-ca-ca-X
  402     403     405     419         9       180.000      15.16700    2     ; C-C-C-C, prebuilt X-ca-ca-X
  402     403     417     418         9       180.000       4.18400    2     ; C-C-C-N, prebuilt X-c-ca-X
  402     403     417     462         9       180.000       4.18400    2     ; C-C-C-O, prebuilt X-c-ca-X
  403     402     401     404         9       180.000      15.16700    2     ; C-C-C-C, prebuilt X-ca-ca-X
  403     402     401     407         9       180.000      15.16700    2     ; C-C-C-C, prebuilt X-ca-ca-X
  403     405     406     404         9       180.000      15.16700    2     ; C-C-C-C, prebuilt X-ca-ca-X
  403     405     406     461         9       180.000      15.16700    2     ; C-C-C-H, prebuilt X-ca-ca-X
  403     405     419     418         9       180.000       4.18400    2     ; C-C-C-N, prebuilt X-c-ca-X
  403     405     419     420         9       180.000       4.18400    2     ; C-C-C-O, prebuilt X-c-ca-X
  403     417     418     419         9       180.000      10.46000    2     ; C-C-N-C, prebuilt X-c-n-X
  403     417     418     534         9       180.000      10.46000    2     ; C-C-N-C, prebuilt X-c-n-X
  404     401     402     460         9       180.000      15.16700    2     ; C-C-C-H, prebuilt X-ca-ca-X
  404     401     407     408         9         0.000       0.00000    2     ; C-C-C-C, prebuilt X-c3-ca-X
  404     401     407     412         9         0.000       0.00000    2     ; C-C-C-C, prebuilt X-c3-ca-X
  404     406     405     419         9       180.000      15.16700    2     ; C-C-C-C, prebuilt X-ca-ca-X
  405     403     402     460         9       180.000      15.16700    2     ; C-C-C-H, prebuilt X-ca-ca-X
  405     403     417     418         9       180.000       4.18400    2     ; C-C-C-N, prebuilt X-c-ca-X
  405     403     417     462         9       180.000       4.18400    2     ; C-C-C-O, prebuilt X-c-ca-X
  405     406     404     459         9       180.000      15.16700    2     ; C-C-C-H, prebuilt X-ca-ca-X
  405     419     418     417         9       180.000      10.46000    2     ; C-C-N-C, prebuilt X-c-n-X
  405     419     418     534         9       180.000      10.46000    2     ; C-C-N-C, prebuilt X-c-n-X
  406     404     401     407         9       180.000      15.16700    2     ; C-C-C-C, prebuilt X-ca-ca-X
  406     405     403     417         9       180.000      15.16700    2     ; C-C-C-C, prebuilt X-ca-ca-X
  406     405     419     418         9       180.000       4.18400    2     ; C-C-C-N, prebuilt X-c-ca-X
  406     405     419     420         9       180.000       4.18400    2     ; C-C-C-O, prebuilt X-c-ca-X
  407     398     397     456         9       180.000      15.16700    2     ; C-C-C-H, prebuilt X-ca-ca-X
  407     398     399     457         9       180.000      15.16700    2     ; C-C-C-H, prebuilt X-ca-ca-X
  407     401     402     460         9       180.000      15.16700    2     ; C-C-C-H, prebuilt X-ca-ca-X
  407     401     404     459         9       180.000      15.16700    2     ; C-C-C-H, prebuilt X-ca-ca-X
  408     407     412     413         9         0.000       0.65084    3     ; C-C-C-F, prebuilt X-c3-c3-X
  408     407     412     414         9         0.000       0.65084    3     ; C-C-C-F, prebuilt X-c3-c3-X
  408     407     412     415         9         0.000       0.65084    3     ; C-C-C-F, prebuilt X-c3-c3-X
  409     408     407     412         9         0.000       0.65084    3     ; F-C-C-C, prebuilt X-c3-c3-X
  410     408     407     412         9         0.000       0.65084    3     ; F-C-C-C, prebuilt X-c3-c3-X
  411     408     407     412         9         0.000       0.65084    3     ; F-C-C-C, prebuilt X-c3-c3-X
  417     403     402     460         9       180.000      15.16700    2     ; C-C-C-H, prebuilt X-ca-ca-X
  417     403     405     419         9       180.000      15.16700    2     ; C-C-C-C, prebuilt X-ca-ca-X
  417     418     419     420         9       180.000      10.46000    2     ; C-N-C-O, prebuilt X-c-n-X
  417     418     534     533         9       180.000       1.88280    2     ; C-N-C-C, prebuilt X-ca-n-X
  417     418     534     535         9       180.000       1.88280    2     ; C-N-C-C, prebuilt X-ca-n-X
  418     534     533     532         9       180.000      15.16700    2     ; N-C-C-C, prebuilt X-ca-ca-X
  418     534     533     561         9       180.000      15.16700    2     ; N-C-C-H, prebuilt X-ca-ca-X
  418     534     535     536         9       180.000      15.16700    2     ; N-C-C-C, prebuilt X-ca-ca-X
  418     534     535     563         9       180.000      15.16700    2     ; N-C-C-H, prebuilt X-ca-ca-X
  419     405     406     461         9       180.000      15.16700    2     ; C-C-C-H, prebuilt X-ca-ca-X
  419     418     417     462         9       180.000      10.46000    2     ; C-N-C-O, prebuilt X-c-n-X
  419     418     534     533         9       180.000       1.88280    2     ; C-N-C-C, prebuilt X-ca-n-X
  419     418     534     535         9       180.000       1.88280    2     ; C-N-C-C, prebuilt X-ca-n-X
  420     419     418     534         9       180.000      10.46000    2     ; O-C-N-C, prebuilt X-c-n-X
  421     384     382     447         9       180.000       2.61500    2     ; C-C-N-C, prebuilt X-c2-na-X
  421     384     382     473         9       180.000       2.61500    2     ; C-C-N-C, prebuilt X-c2-na-X
  421     384     383     446         9       180.000       2.61500    2     ; C-C-N-C, prebuilt X-c2-na-X
  421     422     424     426         9       180.000      15.16700    2     ; C-C-C-C, prebuilt X-ca-ca-X
  421     422     424     464         9       180.000      15.16700    2     ; C-C-C-H, prebuilt X-ca-ca-X
  421     423     425     426         9       180.000      15.16700    2     ; C-C-C-C, prebuilt X-ca-ca-X
  421     423     425     471         9       180.000      15.16700    2     ; C-C-C-H, prebuilt X-ca-ca-X
  422     421     423     425         9       180.000      15.16700    2     ; C-C-C-C, prebuilt X-ca-ca-X
  422     421     423     465         9       180.000      15.16700    2     ; C-C-C-H, prebuilt X-ca-ca-X
  422     424     426     425         9       180.000      15.16700    2     ; C-C-C-C, prebuilt X-ca-ca-X
  422     424     426     427         9       180.000      15.16700    2     ; C-C-C-C, prebuilt X-ca-ca-X
  423     421     422     424         9       180.000      15.16700    2     ; C-C-C-C, prebuilt X-ca-ca-X
  423     421     422     463         9       180.000      15.16700    2     ; C-C-C-H, prebuilt X-ca-ca-X
  423     425     426     424         9       180.000      15.16700    2     ; C-C-C-C, prebuilt X-ca-ca-X
  423     425     426     427         9       180.000      15.16700    2     ; C-C-C-C, prebuilt X-ca-ca-X
  424     426     425     471         9       180.000      15.16700    2     ; C-C-C-H, prebuilt X-ca-ca-X
  424     426     427     428         9       180.000       2.92880    2     ; C-C-C-N, prebuilt X-c2-ca-X
  424     426     427     429         9       180.000       2.92880    2     ; C-C-C-N, prebuilt X-c2-ca-X
  425     426     424     464         9       180.000      15.16700    2     ; C-C-C-H, prebuilt X-ca-ca-X
  425     426     427     428         9       180.000       2.92880    2     ; C-C-C-N, prebuilt X-c2-ca-X
  425     426     427     429         9       180.000       2.92880    2     ; C-C-C-N, prebuilt X-c2-ca-X
  426     424     422     463         9       180.000      15.16700    2     ; C-C-C-H, prebuilt X-ca-ca-X
  426     425     423     465         9       180.000      15.16700    2     ; C-C-C-H, prebuilt X-ca-ca-X
  426     427     428     430         9       180.000       2.61500    2     ; C-C-N-C, prebuilt X-c2-na-X
  426     427     428     436         9       180.000       2.61500    2     ; C-C-N-C, prebuilt X-c2-na-X
  426     427     429     431         9       180.000       2.61500    2     ; C-C-N-C, prebuilt X-c2-na-X
  426     427     429     432         9       180.000       2.61500    2     ; C-C-N-C, prebuilt X-c2-na-X
  427     426     424     464         9       180.000      15.16700    2     ; C-C-C-H, prebuilt X-ca-ca-X
  427     426     425     471         9       180.000      15.16700    2     ; C-C-C-H, prebuilt X-ca-ca-X
  427     428     430     431         9       180.000       2.61500    2     ; C-N-C-C, prebuilt X-c2-na-X
  427     428     430     470         9       180.000       2.61500    2     ; C-N-C-H, prebuilt X-c2-na-X
  427     428     436     437         9       180.000       1.25520    2     ; C-N-C-C, prebuilt X-ca-na-X
  427     428     436     441         9       180.000       1.25520    2     ; C-N-C-C, prebuilt X-ca-na-X
  427     429     431     430         9       180.000       2.61500    2     ; C-N-C-C, prebuilt X-c2-na-X
  427     429     431     442         9       180.000       2.61500    2     ; C-N-C-C, prebuilt X-c2-na-X
  427     429     432     433         9         0.000       0.00000    2     ; C-N-C-H, prebuilt X-c3-na-X
  427     429     432     434         9         0.000       0.00000    2     ; C-N-C-H, prebuilt X-c3-na-X
  427     429     432     435         9         0.000       0.00000    2     ; C-N-C-H, prebuilt X-c3-na-X
  428     427     429     431         9       180.000       2.61500    2     ; N-C-N-C, prebuilt X-c2-na-X
  428     427     429     432         9       180.000       2.61500    2     ; N-C-N-C, prebuilt X-c2-na-X
  428     430     431     429         9       180.000      27.82360    2     ; N-C-C-N, prebuilt X-c2-c2-X
  428     430     431     442         9       180.000      27.82360    2     ; N-C-C-C, prebuilt X-c2-c2-X
  428     436     437     438         9       180.000      15.16700    2     ; N-C-C-C, prebuilt X-ca-ca-X
  428     436     437     467         9       180.000      15.16700    2     ; N-C-C-H, prebuilt X-ca-ca-X
  428     436     441     440         9       180.000      15.16700    2     ; N-C-C-C, prebuilt X-ca-ca-X
  428     436     441     469         9       180.000      15.16700    2     ; N-C-C-H, prebuilt X-ca-ca-X
  429     427     428     430         9       180.000       2.61500    2     ; N-C-N-C, prebuilt X-c2-na-X
  429     427     428     436         9       180.000       2.61500    2     ; N-C-N-C, prebuilt X-c2-na-X
  429     431     430     470         9       180.000      27.82360    2     ; N-C-C-H, prebuilt X-c2-c2-X
  429     431     442     443         9         0.000       0.00000    2     ; N-C-C-F, prebuilt X-c2-c3-X
  429     431     442     444         9         0.000       0.00000    2     ; N-C-C-F, prebuilt X-c2-c3-X
  429     431     442     445         9         0.000       0.00000    2     ; N-C-C-F, prebuilt X-c2-c3-X
  430     428     436     437         9       180.000       1.25520    2     ; C-N-C-C, prebuilt X-ca-na-X
  430     428     436     441         9       180.000       1.25520    2     ; C-N-C-C, prebuilt X-ca-na-X
  430     431     429     432         9       180.000       2.61500    2     ; C-C-N-C, prebuilt X-c2-na-X
  430     431     442     443         9         0.000       0.00000    2     ; C-C-C-F, prebuilt X-c2-c3-X
  430     431     442     444         9         0.000       0.00000    2     ; C-C-C-F, prebuilt X-c2-c3-X
  430     431     442     445         9         0.000       0.00000    2     ; C-C-C-F, prebuilt X-c2-c3-X
  431     429     432     433         9         0.000       0.00000    2     ; C-N-C-H, prebuilt X-c3-na-X
  431     429     432     434         9         0.000       0.00000    2     ; C-N-C-H, prebuilt X-c3-na-X
  431     429     432     435         9         0.000       0.00000    2     ; C-N-C-H, prebuilt X-c3-na-X
  431     430     428     436         9       180.000       2.61500    2     ; C-C-N-C, prebuilt X-c2-na-X
  432     429     431     442         9       180.000       2.61500    2     ; C-N-C-C, prebuilt X-c2-na-X
  436     428     430     470         9       180.000       2.61500    2     ; C-N-C-H, prebuilt X-c2-na-X
  436     437     438     439         9       180.000      15.16700    2     ; C-C-C-C, prebuilt X-ca-ca-X
  436     437     438     466         9       180.000      15.16700    2     ; C-C-C-H, prebuilt X-ca-ca-X
  436     441     440     439         9       180.000      15.16700    2     ; C-C-C-C, prebuilt X-ca-ca-X
  436     441     440     468         9       180.000      15.16700    2     ; C-C-C-H, prebuilt X-ca-ca-X
  437     436     441     440         9       180.000      15.16700    2     ; C-C-C-C, prebuilt X-ca-ca-X
  437     436     441     469         9       180.000      15.16700    2     ; C-C-C-H, prebuilt X-ca-ca-X
  437     438     439     440         9       180.000      15.16700    2     ; C-C-C-C, prebuilt X-ca-ca-X
  438     437     436     441         9       180.000      15.16700    2     ; C-C-C-C, prebuilt X-ca-ca-X
  438     439     440     441         9       180.000      15.16700    2     ; C-C-C-C, prebuilt X-ca-ca-X
  438     439     440     468         9       180.000      15.16700    2     ; C-C-C-H, prebuilt X-ca-ca-X
  439     438     437     467         9       180.000      15.16700    2     ; C-C-C-H, prebuilt X-ca-ca-X
  439     440     441     469         9       180.000      15.16700    2     ; C-C-C-H, prebuilt X-ca-ca-X
  440     439     438     466         9       180.000      15.16700    2     ; C-C-C-H, prebuilt X-ca-ca-X
  441     436     437     467         9       180.000      15.16700    2     ; C-C-C-H, prebuilt X-ca-ca-X
  442     431     430     470         9       180.000      27.82360    2     ; C-C-C-H, prebuilt X-c2-c2-X
  446     447     382     473         9       180.000       2.61500    2     ; C-C-N-C, prebuilt X-c2-na-X
  446     447     448     449         9         0.000       0.00000    2     ; C-C-C-F, prebuilt X-c2-c3-X
  446     447     448     450         9         0.000       0.00000    2     ; C-C-C-F, prebuilt X-c2-c3-X
  446     447     448     472         9         0.000       0.00000    2     ; C-C-C-F, prebuilt X-c2-c3-X
  447     382     473     474         9         0.000       0.00000    2     ; C-N-C-H, prebuilt X-c3-na-X
  447     382     473     475         9         0.000       0.00000    2     ; C-N-C-H, prebuilt X-c3-na-X
  447     382     473     476         9         0.000       0.00000    2     ; C-N-C-H, prebuilt X-c3-na-X
  448     447     382     473         9       180.000       2.61500    2     ; C-C-N-C, prebuilt X-c2-na-X
  448     447     446     451         9       180.000      27.82360    2     ; C-C-C-H, prebuilt X-c2-c2-X
  452     386     387     453         9       180.000      15.16700    2     ; H-C-C-H, prebuilt X-ca-ca-X
  454     390     389     455         9       180.000      15.16700    2     ; H-C-C-H, prebuilt X-ca-ca-X
  457     399     400     458         9       180.000      15.16700    2     ; H-C-C-H, prebuilt X-ca-ca-X
  459     404     406     461         9       180.000      15.16700    2     ; H-C-C-H, prebuilt X-ca-ca-X
  462     417     418     534         9       180.000      10.46000    2     ; O-C-N-C, prebuilt X-c-n-X
  463     422     424     464         9       180.000      15.16700    2     ; H-C-C-H, prebuilt X-ca-ca-X
  465     423     425     471         9       180.000      15.16700    2     ; H-C-C-H, prebuilt X-ca-ca-X
  466     438     437     467         9       180.000      15.16700    2     ; H-C-C-H, prebuilt X-ca-ca-X
  468     440     441     469         9       180.000      15.16700    2     ; H-C-C-H, prebuilt X-ca-ca-X
  477     479     478     480         9       180.000       2.61500    2     ; N-C-N-C, prebuilt X-c2-na-X
  477     479     478     541         9       180.000       2.61500    2     ; N-C-N-C, prebuilt X-c2-na-X
  477     479     516     517         9       180.000       2.92880    2     ; N-C-C-C, prebuilt X-c2-ca-X
  477     479     516     518         9       180.000       2.92880    2     ; N-C-C-C, prebuilt X-c2-ca-X
  477     542     541     478         9       180.000      27.82360    2     ; N-C-C-N, prebuilt X-c2-c2-X
  477     542     541     546         9       180.000      27.82360    2     ; N-C-C-H, prebuilt X-c2-c2-X
  477     542     543     544         9         0.000       0.00000    2     ; N-C-C-F, prebuilt X-c2-c3-X
  477     542     543     545         9         0.000       0.00000    2     ; N-C-C-F, prebuilt X-c2-c3-X
  477     542     543     567         9         0.000       0.00000    2     ; N-C-C-F, prebuilt X-c2-c3-X
  478     479     477     542         9       180.000       2.61500    2     ; N-C-N-C, prebuilt X-c2-na-X
  478     479     477     568         9       180.000       2.61500    2     ; N-C-N-C, prebuilt X-c2-na-X
  478     479     516     517         9       180.000       2.92880    2     ; N-C-C-C, prebuilt X-c2-ca-X
  478     479     516     518         9       180.000       2.92880    2     ; N-C-C-C, prebuilt X-c2-ca-X
  478     480     481     482         9       180.000      15.16700    2     ; N-C-C-C, prebuilt X-ca-ca-X
  478     480     481     547         9       180.000      15.16700    2     ; N-C-C-H, prebuilt X-ca-ca-X
  478     480     485     484         9       180.000      15.16700    2     ; N-C-C-C, prebuilt X-ca-ca-X
  478     480     485     549         9       180.000      15.16700    2     ; N-C-C-H, prebuilt X-ca-ca-X
  478     541     542     543         9       180.000      27.82360    2     ; N-C-C-C, prebuilt X-c2-c2-X
  479     477     542     541         9       180.000       2.61500    2     ; C-N-C-C, prebuilt X-c2-na-X
  479     477     542     543         9       180.000       2.61500    2     ; C-N-C-C, prebuilt X-c2-na-X
  479     477     568     569         9         0.000       0.00000    2     ; C-N-C-H, prebuilt X-c3-na-X
  479     477     568     570         9         0.000       0.00000    2     ; C-N-C-H, prebuilt X-c3-na-X
  479     477     568     571         9         0.000       0.00000    2     ; C-N-C-H, prebuilt X-c3-na-X
  479     478     480     481         9       180.000       1.25520    2     ; C-N-C-C, prebuilt X-ca-na-X
  479     478     480     485         9       180.000       1.25520    2     ; C-N-C-C, prebuilt X-ca-na-X
  479     478     541     542         9       180.000       2.61500    2     ; C-N-C-C, prebuilt X-c2-na-X
  479     478     541     546         9       180.000       2.61500    2     ; C-N-C-H, prebuilt X-c2-na-X
  479     516     517     519         9       180.000      15.16700    2     ; C-C-C-C, prebuilt X-ca-ca-X
  479     516     517     558         9       180.000      15.16700    2     ; C-C-C-H, prebuilt X-ca-ca-X
  479     516     518     520         9       180.000      15.16700    2     ; C-C-C-C, prebuilt X-ca-ca-X
  479     516     518     560         9       180.000      15.16700    2     ; C-C-C-H, prebuilt X-ca-ca-X
  480     478     479     516         9       180.000       2.61500    2     ; C-N-C-C, prebuilt X-c2-na-X
  480     478     541     542         9       180.000       2.61500    2     ; C-N-C-C, prebuilt X-c2-na-X
  480     478     541     546         9       180.000       2.61500    2     ; C-N-C-H, prebuilt X-c2-na-X
  480     481     482     483         9       180.000      15.16700    2     ; C-C-C-C, prebuilt X-ca-ca-X
  480     481     482     548         9       180.000      15.16700    2     ; C-C-C-H, prebuilt X-ca-ca-X
  480     485     484     483         9       180.000      15.16700    2     ; C-C-C-C, prebuilt X-ca-ca-X
  480     485     484     550         9       180.000      15.16700    2     ; C-C-C-H, prebuilt X-ca-ca-X
  481     480     478     541         9       180.000       1.25520    2     ; C-C-N-C, prebuilt X-ca-na-X
  481     480     485     484         9       180.000      15.16700    2     ; C-C-C-C, prebuilt X-ca-ca-X
  481     480     485     549         9       180.000      15.16700    2     ; C-C-C-H, prebuilt X-ca-ca-X
  481     482     483     484         9       180.000      15.16700    2     ; C-C-C-C, prebuilt X-ca-ca-X
  481     482     483     486         9       180.000      15.16700    2     ; C-C-C-N, prebuilt X-ca-ca-X
  482     481     480     485         9       180.000      15.16700    2     ; C-C-C-C, prebuilt X-ca-ca-X
  482     483     484     485         9       180.000      15.16700    2     ; C-C-C-C, prebuilt X-ca-ca-X
  482     483     484     550         9       180.000      15.16700    2     ; C-C-C-H, prebuilt X-ca-ca-X
  482     483     486     487         9       180.000       1.88280    2     ; C-C-N-C, prebuilt X-ca-n-X
  482     483     486     490         9       180.000       1.88280    2     ; C-C-N-C, prebuilt X-ca-n-X
  483     482     481     547         9       180.000      15.16700    2     ; C-C-C-H, prebuilt X-ca-ca-X
  483     484     485     549         9       180.000      15.16700    2     ; C-C-C-H, prebuilt X-ca-ca-X
  483     486     487     488         9       180.000      10.46000    2     ; C-N-C-C, prebuilt X-c-n-X
  483     486     487     511         9       180.000      10.46000    2     ; C-N-C-O, prebuilt X-c-n-X
  483     486     490     489         9       180.000      10.46000    2     ; C-N-C-C, prebuilt X-c-n-X
  483     486     490     491         9       180.000      10.46000    2     ; C-N-C-O, prebuilt X-c-n-X
  484     483     482     548         9       180.000      15.16700    2     ; C-C-C-H, prebuilt X-ca-ca-X
  484     483     486     487         9       180.000       1.88280    2     ; C-C-N-C, prebuilt X-ca-n-X
  484     483     486     490         9       180.000       1.88280    2     ; C-C-N-C, prebuilt X-ca-n-X
  485     480     478     541         9       180.000       1.25520    2     ; C-C-N-C, prebuilt X-ca-na-X
  485     480     481     547         9       180.000      15.16700    2     ; C-C-C-H, prebuilt X-ca-ca-X
  485     484     483     486         9       180.000      15.16700    2     ; C-C-C-N, prebuilt X-ca-ca-X
  486     483     482     548         9       180.000      15.16700    2     ; N-C-C-H, prebuilt X-ca-ca-X
  486     483     484     550         9       180.000      15.16700    2     ; N-C-C-H, prebuilt X-ca-ca-X
  486     487     488     489         9       180.000       4.18400    2     ; N-C-C-C, prebuilt X-c-ca-X
  486     487     488     492         9       180.000       4.18400    2     ; N-C-C-C, prebuilt X-c-ca-X
  486     490     489     488         9       180.000       4.18400    2     ; N-C-C-C, prebuilt X-c-ca-X
  486     490     489     495         9       180.000       4.18400    2     ; N-C-C-C, prebuilt X-c-ca-X
  487     486     490     489         9       180.000      10.46000    2     ; C-N-C-C, prebuilt X-c-n-X
  487     486     490     491         9       180.000      10.46000    2     ; C-N-C-O, prebuilt X-c-n-X
  487     488     489     490         9       180.000      15.16700    2     ; C-C-C-C, prebuilt X-ca-ca-X
  487     488     489     495         9       180.000      15.16700    2     ; C-C-C-C, prebuilt X-ca-ca-X
  487     488     492     493         9       180.000      15.16700    2     ; C-C-C-C, prebuilt X-ca-ca-X
  487     488     492     551         9       180.000      15.16700    2     ; C-C-C-H, prebuilt X-ca-ca-X
  488     487     486     490         9       180.000      10.46000    2     ; C-C-N-C, prebuilt X-c-n-X
  488     489     490     491         9       180.000       4.18400    2     ; C-C-C-O, prebuilt X-c-ca-X
  488     489     495     494         9       180.000      15.16700    2     ; C-C-C-C, prebuilt X-ca-ca-X
  488     489     495     553         9       180.000      15.16700    2     ; C-C-C-H, prebuilt X-ca-ca-X
  488     492     493     494         9       180.000      15.16700    2     ; C-C-C-C, prebuilt X-ca-ca-X
  488     492     493     502         9       180.000      15.16700    2     ; C-C-C-C, prebuilt X-ca-ca-X
  489     488     487     511         9       180.000       4.18400    2     ; C-C-C-O, prebuilt X-c-ca-X
  489     488     492     493         9       180.000      15.16700    2     ; C-C-C-C, prebuilt X-ca-ca-X
  489     488     492     551         9       180.000      15.16700    2     ; C-C-C-H, prebuilt X-ca-ca-X
  489     495     494     493         9       180.000      15.16700    2     ; C-C-C-C, prebuilt X-ca-ca-X
  489     495     494     552         9       180.000      15.16700    2     ; C-C-C-H, prebuilt X-ca-ca-X
  490     486     487     511         9       180.000      10.46000    2     ; C-N-C-O, prebuilt X-c-n-X
  490     489     488     492         9       180.000      15.16700    2     ; C-C-C-C, prebuilt X-ca-ca-X
  490     489     495     494         9       180.000      15.16700    2     ; C-C-C-C, prebuilt X-ca-ca-X
  490     489     495     553         9       180.000      15.16700    2     ; C-C-C-H, prebuilt X-ca-ca-X
  491     490     489     495         9       180.000       4.18400    2     ; O-C-C-C, prebuilt X-c-ca-X
  492     488     487     511         9       180.000       4.18400    2     ; C-C-C-O, prebuilt X-c-ca-X
  492     488     489     495         9       180.000      15.16700    2     ; C-C-C-C, prebuilt X-ca-ca-X
  492     493     494     495         9       180.000      15.16700    2     ; C-C-C-C, prebuilt X-ca-ca-X
  492     493     494     552         9       180.000      15.16700    2     ; C-C-C-H, prebuilt X-ca-ca-X
  492     493     502     496         9         0.000       0.00000    2     ; C-C-C-C, prebuilt X-c3-ca-X
  492     493     502     503         9         0.000       0.00000    2     ; C-C-C-C, prebuilt X-c3-ca-X
  492     493     502     507         9         0.000       0.00000    2     ; C-C-C-C, prebuilt X-c3-ca-X
  493     494     495     553         9       180.000      15.16700    2     ; C-C-C-H, prebuilt X-ca-ca-X
  493     502     496     497         9         0.000       0.00000    2     ; C-C-C-C, prebuilt X-c3-ca-X
  493     502     496     499         9         0.000       0.00000    2     ; C-C-C-C, prebuilt X-c3-ca-X
  493     502     503     504         9         0.000       0.65084    3     ; C-C-C-F, prebuilt X-c3-c3-X
  493     502     503     505         9         0.000       0.65084    3     ; C-C-C-F, prebuilt X-c3-c3-X
  493     502     503     506         9         0.000       0.65084    3     ; C-C-C-F, prebuilt X-c3-c3-X
  493     502     507     508         9         0.000       0.65084    3     ; C-C-C-F, prebuilt X-c3-c3-X
  493     502     507     509         9         0.000       0.65084    3     ; C-C-C-F, prebuilt X-c3-c3-X
  493     502     507     510         9         0.000       0.65084    3     ; C-C-C-F, prebuilt X-c3-c3-X
  494     493     492     551         9       180.000      15.16700    2     ; C-C-C-H, prebuilt X-ca-ca-X
  494     493     502     496         9         0.000       0.00000    2     ; C-C-C-C, prebuilt X-c3-ca-X
  494     493     502     503         9         0.000       0.00000    2     ; C-C-C-C, prebuilt X-c3-ca-X
  494     493     502     507         9         0.000       0.00000    2     ; C-C-C-C, prebuilt X-c3-ca-X
  495     494     493     502         9       180.000      15.16700    2     ; C-C-C-C, prebuilt X-ca-ca-X
  496     497     498     500         9       180.000      15.16700    2     ; C-C-C-C, prebuilt X-ca-ca-X
  496     497     498     512         9       180.000      15.16700    2     ; C-C-C-C, prebuilt X-ca-ca-X
  496     499     501     500         9       180.000      15.16700    2     ; C-C-C-C, prebuilt X-ca-ca-X
  496     499     501     556         9       180.000      15.16700    2     ; C-C-C-H, prebuilt X-ca-ca-X
  496     502     503     504         9         0.000       0.65084    3     ; C-C-C-F, prebuilt X-c3-c3-X
  496     502     503     505         9         0.000       0.65084    3     ; C-C-C-F, prebuilt X-c3-c3-X
  496     502     503     506         9         0.000       0.65084    3     ; C-C-C-F, prebuilt X-c3-c3-X
  496     502     507     508         9         0.000       0.65084    3     ; C-C-C-F, prebuilt X-c3-c3-X
  496     502     507     509         9         0.000       0.65084    3     ; C-C-C-F, prebuilt X-c3-c3-X
  496     502     507     510         9         0.000       0.65084    3     ; C-C-C-F, prebuilt X-c3-c3-X
  497     496     499     501         9       180.000      15.16700    2     ; C-C-C-C, prebuilt X-ca-ca-X
  497     496     499     554         9       180.000      15.16700    2     ; C-C-C-H, prebuilt X-ca-ca-X
  497     496     502     503         9         0.000       0.00000    2     ; C-C-C-C, prebuilt X-c3-ca-X
  497     496     502     507         9         0.000       0.00000    2     ; C-C-C-C, prebuilt X-c3-ca-X
  497     498     500     501         9       180.000      15.16700    2     ; C-C-C-C, prebuilt X-ca-ca-X
  497     498     500     514         9       180.000      15.16700    2     ; C-C-C-C, prebuilt X-ca-ca-X
  497     498     512     513         9       180.000       4.18400    2     ; C-C-C-N, prebuilt X-c-ca-X
  497     498     512     557         9       180.000       4.18400    2     ; C-C-C-O, prebuilt X-c-ca-X
  498     497     496     499         9       180.000      15.16700    2     ; C-C-C-C, prebuilt X-ca-ca-X
  498     497     496     502         9       180.000      15.16700    2     ; C-C-C-C, prebuilt X-ca-ca-X
  498     500     501     499         9       180.000      15.16700    2     ; C-C-C-C, prebuilt X-ca-ca-X
  498     500     501     556         9       180.000      15.16700    2     ; C-C-C-H, prebuilt X-ca-ca-X
  498     500     514     513         9       180.000       4.18400    2     ; C-C-C-N, prebuilt X-c-ca-X
  498     500     514     515         9       180.000       4.18400    2     ; C-C-C-O, prebuilt X-c-ca-X
  498     512     513     514         9       180.000      10.46000    2     ; C-C-N-C, prebuilt X-c-n-X
  498     512     513     629         9       180.000      10.46000    2     ; C-C-N-C, prebuilt X-c-n-X
  499     496     497     555         9       180.000      15.16700    2     ; C-C-C-H, prebuilt X-ca-ca-X
  499     496     502     503         9         0.000       0.00000    2     ; C-C-C-C, prebuilt X-c3-ca-X
  499     496     502     507         9         0.000       0.00000    2     ; C-C-C-C, prebuilt X-c3-ca-X
  499     501     500     514         9       180.000      15.16700    2     ; C-C-C-C, prebuilt X-ca-ca-X
  500     498     497     555         9       180.000      15.16700    2     ; C-C-C-H, prebuilt X-ca-ca-X
  500     498     512     513         9       180.000       4.18400    2     ; C-C-C-N, prebuilt X-c-ca-X
  500     498     512     557         9       180.000       4.18400    2     ; C-C-C-O, prebuilt X-c-ca-X
  500     501     499     554         9       180.000      15.16700    2     ; C-C-C-H, prebuilt X-ca-ca-X
  500     514     513     512         9       180.000      10.46000    2     ; C-C-N-C, prebuilt X-c-n-X
  500     514     513     629         9       180.000      10.46000    2     ; C-C-N-C, prebuilt X-c-n-X
  501     499     496     502         9       180.000      15.16700    2     ; C-C-C-C, prebuilt X-ca-ca-X
  501     500     498     512         9       180.000      15.16700    2     ; C-C-C-C, prebuilt X-ca-ca-X
  501     500     514     513         9       180.000       4.18400    2     ; C-C-C-N, prebuilt X-c-ca-X
  501     500     514     515         9       180.000       4.18400    2     ; C-C-C-O, prebuilt X-c-ca-X
  502     493     492     551         9       180.000      15.16700    2     ; C-C-C-H, prebuilt X-ca-ca-X
  502     493     494     552         9       180.000      15.16700    2     ; C-C-C-H, prebuilt X-ca-ca-X
  502     496     497     555         9       180.000      15.16700    2     ; C-C-C-H, prebuilt X-ca-ca-X
  502     496     499     554         9       180.000      15.16700    2     ; C-C-C-H, prebuilt X-ca-ca-X
  503     502     507     508         9         0.000       0.65084    3     ; C-C-C-F, prebuilt X-c3-c3-X
  503     502     507     509         9         0.000       0.65084    3     ; C-C-C-F, prebuilt X-c3-c3-X
  503     502     507     510         9         0.000       0.65084    3     ; C-C-C-F, prebuilt X-c3-c3-X
  504     503     502     507         9         0.000       0.65084    3     ; F-C-C-C, prebuilt X-c3-c3-X
  505     503     502     507         9         0.000       0.65084    3     ; F-C-C-C, prebuilt X-c3-c3-X
  506     503     502     507         9         0.000       0.65084    3     ; F-C-C-C, prebuilt X-c3-c3-X
  512     498     497     555         9       180.000      15.16700    2     ; C-C-C-H, prebuilt X-ca-ca-X
  512     498     500     514         9       180.000      15.16700    2     ; C-C-C-C, prebuilt X-ca-ca-X
  512     513     514     515         9       180.000      10.46000    2     ; C-N-C-O, prebuilt X-c-n-X
  512     513     629     628         9       180.000       1.88280    2     ; C-N-C-C, prebuilt X-ca-n-X
  512     513     629     630         9       180.000       1.88280    2     ; C-N-C-C, prebuilt X-ca-n-X
  513     629     628     627         9       180.000      15.16700    2     ; N-C-C-C, prebuilt X-ca-ca-X
  513     629     628     656         9       180.000      15.16700    2     ; N-C-C-H, prebuilt X-ca-ca-X
  513     629     630     631         9       180.000      15.16700    2     ; N-C-C-C, prebuilt X-ca-ca-X
  513     629     630     658         9       180.000      15.16700    2     ; N-C-C-H, prebuilt X-ca-ca-X
  514     500     501     556         9       180.000      15.16700    2     ; C-C-C-H, prebuilt X-ca-ca-X
  514     513     512     557         9       180.000      10.46000    2     ; C-N-C-O, prebuilt X-c-n-X
  514     513     629     628         9       180.000       1.88280    2     ; C-N-C-C, prebuilt X-ca-n-X
  514     513     629     630         9       180.000       1.88280    2     ; C-N-C-C, prebuilt X-ca-n-X
  515     514     513     629         9       180.000      10.46000    2     ; O-C-N-C, prebuilt X-c-n-X
  516     479     477     542         9       180.000       2.61500    2     ; C-C-N-C, prebuilt X-c2-na-X
  516     479     477     568         9       180.000       2.61500    2     ; C-C-N-C, prebuilt X-c2-na-X
  516     479     478     541         9       180.000       2.61500    2     ; C-C-N-C, prebuilt X-c2-na-X
  516     517     519     521         9       180.000      15.16700    2     ; C-C-C-C, prebuilt X-ca-ca-X
  516     517     519     559         9       180.000      15.16700    2     ; C-C-C-H, prebuilt X-ca-ca-X
  516     518     520     521         9       180.000      15.16700    2     ; C-C-C-C, prebuilt X-ca-ca-X
  516     518     520     566         9       180.000      15.16700    2     ; C-C-C-H, prebuilt X-ca-ca-X
  517     516     518     520         9       180.000      15.16700    2     ; C-C-C-C, prebuilt X-ca-ca-X
  517     516     518     560         9       180.000      15.16700    2     ; C-C-C-H, prebuilt X-ca-ca-X
  517     519     521     520         9       180.000      15.16700    2     ; C-C-C-C, prebuilt X-ca-ca-X
  517     519     521     522         9       180.000      15.16700    2     ; C-C-C-C, prebuilt X-ca-ca-X
  518     516     517     519         9       180.000      15.16700    2     ; C-C-C-C, prebuilt X-ca-ca-X
  518     516     517     558         9       180.000      15.16700    2     ; C-C-C-H, prebuilt X-ca-ca-X
  518     520     521     519         9       180.000      15.16700    2     ; C-C-C-C, prebuilt X-ca-ca-X
  518     520     521     522         9       180.000      15.16700    2     ; C-C-C-C, prebuilt X-ca-ca-X
  519     521     520     566         9       180.000      15.16700    2     ; C-C-C-H, prebuilt X-ca-ca-X
  519     521     522     523         9       180.000       2.92880    2     ; C-C-C-N, prebuilt X-c2-ca-X
  519     521     522     524         9       180.000       2.92880    2     ; C-C-C-N, prebuilt X-c2-ca-X
  520     521     519     559         9       180.000      15.16700    2     ; C-C-C-H, prebuilt X-ca-ca-X
  520     521     522     523         9       180.000       2.92880    2     ; C-C-C-N, prebuilt X-c2-ca-X
  520     521     522     524         9       180.000       2.92880    2     ; C-C-C-N, prebuilt X-c2-ca-X
  521     519     517     558         9       180.000      15.16700    2     ; C-C-C-H, prebuilt X-ca-ca-X
  521     520     518     560         9       180.000      15.16700    2     ; C-C-C-H, prebuilt X-ca-ca-X
  521     522     523     525         9       180.000       2.61500    2     ; C-C-N-C, prebuilt X-c2-na-X
  521     522     523     531         9       180.000       2.61500    2     ; C-C-N-C, prebuilt X-c2-na-X
  521     522     524     526         9       180.000       2.61500    2     ; C-C-N-C, prebuilt X-c2-na-X
  521     522     524     527         9       180.000       2.61500    2     ; C-C-N-C, prebuilt X-c2-na-X
  522     521     519     559         9       180.000      15.16700    2     ; C-C-C-H, prebuilt X-ca-ca-X
  522     521     520     566         9       180.000      15.16700    2     ; C-C-C-H, prebuilt X-ca-ca-X
  522     523     525     526         9       180.000       2.61500    2     ; C-N-C-C, prebuilt X-c2-na-X
  522     523     525     565         9       180.000       2.61500    2     ; C-N-C-H, prebuilt X-c2-na-X
  522     523     531     532         9       180.000       1.25520    2     ; C-N-C-C, prebuilt X-ca-na-X
  522     523     531     536         9       180.000       1.25520    2     ; C-N-C-C, prebuilt X-ca-na-X
  522     524     526     525         9       180.000       2.61500    2     ; C-N-C-C, prebuilt X-c2-na-X
  522     524     526     537         9       180.000       2.61500    2     ; C-N-C-C, prebuilt X-c2-na-X
  522     524     527     528         9         0.000       0.00000    2     ; C-N-C-H, prebuilt X-c3-na-X
  522     524     527     529         9         0.000       0.00000    2     ; C-N-C-H, prebuilt X-c3-na-X
  522     524     527     530         9         0.000       0.00000    2     ; C-N-C-H, prebuilt X-c3-na-X
  523     522     524     526         9       180.000       2.61500    2     ; N-C-N-C, prebuilt X-c2-na-X
  523     522     524     527         9       180.000       2.61500    2     ; N-C-N-C, prebuilt X-c2-na-X
  523     525     526     524         9       180.000      27.82360    2     ; N-C-C-N, prebuilt X-c2-c2-X
  523     525     526     537         9       180.000      27.82360    2     ; N-C-C-C, prebuilt X-c2-c2-X
  523     531     532     533         9       180.000      15.16700    2     ; N-C-C-C, prebuilt X-ca-ca-X
  523     531     532     562         9       180.000      15.16700    2     ; N-C-C-H, prebuilt X-ca-ca-X
  523     531     536     535         9       180.000      15.16700    2     ; N-C-C-C, prebuilt X-ca-ca-X
  523     531     536     564         9       180.000      15.16700    2     ; N-C-C-H, prebuilt X-ca-ca-X
  524     522     523     525         9       180.000       2.61500    2     ; N-C-N-C, prebuilt X-c2-na-X
  524     522     523     531         9       180.000       2.61500    2     ; N-C-N-C, prebuilt X-c2-na-X
  524     526     525     565         9       180.000      27.82360    2     ; N-C-C-H, prebuilt X-c2-c2-X
  524     526     537     538         9         0.000       0.00000    2     ; N-C-C-F, prebuilt X-c2-c3-X
  524     526     537     539         9         0.000       0.00000    2     ; N-C-C-F, prebuilt X-c2-c3-X
  524     526     537     540         9         0.000       0.00000    2     ; N-C-C-F, prebuilt X-c2-c3-X
  525     523     531     532         9       180.000       1.25520    2     ; C-N-C-C, prebuilt X-ca-na-X
  525     523     531     536         9       180.000       1.25520    2     ; C-N-C-C, prebuilt X-ca-na-X
  525     526     524     527         9       180.000       2.61500    2     ; C-C-N-C, prebuilt X-c2-na-X
  525     526     537     538         9         0.000       0.00000    2     ; C-C-C-F, prebuilt X-c2-c3-X
  525     526     537     539         9         0.000       0.00000    2     ; C-C-C-F, prebuilt X-c2-c3-X
  525     526     537     540         9         0.000       0.00000    2     ; C-C-C-F, prebuilt X-c2-c3-X
  526     524     527     528         9         0.000       0.00000    2     ; C-N-C-H, prebuilt X-c3-na-X
  526     524     527     529         9         0.000       0.00000    2     ; C-N-C-H, prebuilt X-c3-na-X
  526     524     527     530         9         0.000       0.00000    2     ; C-N-C-H, prebuilt X-c3-na-X
  526     525     523     531         9       180.000       2.61500    2     ; C-C-N-C, prebuilt X-c2-na-X
  527     524     526     537         9       180.000       2.61500    2     ; C-N-C-C, prebuilt X-c2-na-X
  531     523     525     565         9       180.000       2.61500    2     ; C-N-C-H, prebuilt X-c2-na-X
  531     532     533     534         9       180.000      15.16700    2     ; C-C-C-C, prebuilt X-ca-ca-X
  531     532     533     561         9       180.000      15.16700    2     ; C-C-C-H, prebuilt X-ca-ca-X
  531     536     535     534         9       180.000      15.16700    2     ; C-C-C-C, prebuilt X-ca-ca-X
  531     536     535     563         9       180.000      15.16700    2     ; C-C-C-H, prebuilt X-ca-ca-X
  532     531     536     535         9       180.000      15.16700    2     ; C-C-C-C, prebuilt X-ca-ca-X
  532     531     536     564         9       180.000      15.16700    2     ; C-C-C-H, prebuilt X-ca-ca-X
  532     533     534     535         9       180.000      15.16700    2     ; C-C-C-C, prebuilt X-ca-ca-X
  533     532     531     536         9       180.000      15.16700    2     ; C-C-C-C, prebuilt X-ca-ca-X
  533     534     535     536         9       180.000      15.16700    2     ; C-C-C-C, prebuilt X-ca-ca-X
  533     534     535     563         9       180.000      15.16700    2     ; C-C-C-H, prebuilt X-ca-ca-X
  534     533     532     562         9       180.000      15.16700    2     ; C-C-C-H, prebuilt X-ca-ca-X
  534     535     536     564         9       180.000      15.16700    2     ; C-C-C-H, prebuilt X-ca-ca-X
  535     534     533     561         9       180.000      15.16700    2     ; C-C-C-H, prebuilt X-ca-ca-X
  536     531     532     562         9       180.000      15.16700    2     ; C-C-C-H, prebuilt X-ca-ca-X
  537     526     525     565         9       180.000      27.82360    2     ; C-C-C-H, prebuilt X-c2-c2-X
  541     542     477     568         9       180.000       2.61500    2     ; C-C-N-C, prebuilt X-c2-na-X
  541     542     543     544         9         0.000       0.00000    2     ; C-C-C-F, prebuilt X-c2-c3-X
  541     542     543     545         9         0.000       0.00000    2     ; C-C-C-F, prebuilt X-c2-c3-X
  541     542     543     567         9         0.000       0.00000    2     ; C-C-C-F, prebuilt X-c2-c3-X
  542     477     568     569         9         0.000       0.00000    2     ; C-N-C-H, prebuilt X-c3-na-X
  542     477     568     570         9         0.000       0.00000    2     ; C-N-C-H, prebuilt X-c3-na-X
  542     477     568     571         9         0.000       0.00000    2     ; C-N-C-H, prebuilt X-c3-na-X
  543     542     477     568         9       180.000       2.61500    2     ; C-C-N-C, prebuilt X-c2-na-X
  543     542     541     546         9       180.000      27.82360    2     ; C-C-C-H, prebuilt X-c2-c2-X
  547     481     482     548         9       180.000      15.16700    2     ; H-C-C-H, prebuilt X-ca-ca-X
  549     485     484     550         9       180.000      15.16700    2     ; H-C-C-H, prebuilt X-ca-ca-X
  552     494     495     553         9       180.000      15.16700    2     ; H-C-C-H, prebuilt X-ca-ca-X
  554     499     501     556         9       180.000      15.16700    2     ; H-C-C-H, prebuilt X-ca-ca-X
  557     512     513     629         9       180.000      10.46000    2     ; O-C-N-C, prebuilt X-c-n-X
  558     517     519     559         9       180.000      15.16700    2     ; H-C-C-H, prebuilt X-ca-ca-X
  560     518     520     566         9       180.000      15.16700    2     ; H-C-C-H, prebuilt X-ca-ca-X
  561     533     532     562         9       180.000      15.16700    2     ; H-C-C-H, prebuilt X-ca-ca-X
  563     535     536     564         9       180.000      15.16700    2     ; H-C-C-H, prebuilt X-ca-ca-X
  572     574     573     575         9       180.000       2.61500    2     ; N-C-N-C, prebuilt X-c2-na-X
  572     574     573     636         9       180.000       2.61500    2     ; N-C-N-C, prebuilt X-c2-na-X
  572     574     611     612         9       180.000       2.92880    2     ; N-C-C-C, prebuilt X-c2-ca-X
  572     574     611     613         9       180.000       2.92880    2     ; N-C-C-C, prebuilt X-c2-ca-X
  572     637     636     573         9       180.000      27.82360    2     ; N-C-C-N, prebuilt X-c2-c2-X
  572     637     636     641         9       180.000      27.82360    2     ; N-C-C-H, prebuilt X-c2-c2-X
  572     637     638     639         9         0.000       0.00000    2     ; N-C-C-F, prebuilt X-c2-c3-X
  572     637     638     640         9         0.000       0.00000    2     ; N-C-C-F, prebuilt X-c2-c3-X
  572     637     638     662         9         0.000       0.00000    2     ; N-C-C-F, prebuilt X-c2-c3-X
  573     574     572     637         9       180.000       2.61500    2     ; N-C-N-C, prebuilt X-c2-na-X
  573     574     572     663         9       180.000       2.61500    2     ; N-C-N-C, prebuilt X-c2-na-X
  573     574     611     612         9       180.000       2.92880    2     ; N-C-C-C, prebuilt X-c2-ca-X
  573     574     611     613         9       180.000       2.92880    2     ; N-C-C-C, prebuilt X-c2-ca-X
  573     575     576     577         9       180.000      15.16700    2     ; N-C-C-C, prebuilt X-ca-ca-X
  573     575     576     642         9       180.000      15.16700    2     ; N-C-C-H, prebuilt X-ca-ca-X
  573     575     580     579         9       180.000      15.16700    2     ; N-C-C-C, prebuilt X-ca-ca-X
  573     575     580     644         9       180.000      15.16700    2     ; N-C-C-H, prebuilt X-ca-ca-X
  573     636     637     638         9       180.000      27.82360    2     ; N-C-C-C, prebuilt X-c2-c2-X
  574     572     637     636         9       180.000       2.61500    2     ; C-N-C-C, prebuilt X-c2-na-X
  574     572     637     638         9       180.000       2.61500    2     ; C-N-C-C, prebuilt X-c2-na-X
  574     572     663     664         9         0.000       0.00000    2     ; C-N-C-H, prebuilt X-c3-na-X
  574     572     663     665         9         0.000       0.00000    2     ; C-N-C-H, prebuilt X-c3-na-X
  574     572     663     666         9         0.000       0.00000    2     ; C-N-C-H, prebuilt X-c3-na-X
  574     573     575     576         9       180.000       1.25520    2     ; C-N-C-C, prebuilt X-ca-na-X
  574     573     575     580         9       180.000       1.25520    2     ; C-N-C-C, prebuilt X-ca-na-X
  574     573     636     637         9       180.000       2.61500    2     ; C-N-C-C, prebuilt X-c2-na-X
  574     573     636     641         9       180.000       2.61500    2     ; C-N-C-H, prebuilt X-c2-na-X
  574     611     612     614         9       180.000      15.16700    2     ; C-C-C-C, prebuilt X-ca-ca-X
  574     611     612     653         9       180.000      15.16700    2     ; C-C-C-H, prebuilt X-ca-ca-X
  574     611     613     615         9       180.000      15.16700    2     ; C-C-C-C, prebuilt X-ca-ca-X
  574     611     613     655         9       180.000      15.16700    2     ; C-C-C-H, prebuilt X-ca-ca-X
  575     573     574     611         9       180.000       2.61500    2     ; C-N-C-C, prebuilt X-c2-na-X
  575     573     636     637         9       180.000       2.61500    2     ; C-N-C-C, prebuilt X-c2-na-X
  575     573     636     641         9       180.000       2.61500    2     ; C-N-C-H, prebuilt X-c2-na-X
  575     576     577     578         9       180.000      15.16700    2     ; C-C-C-C, prebuilt X-ca-ca-X
  575     576     577     643         9       180.000      15.16700    2     ; C-C-C-H, prebuilt X-ca-ca-X
  575     580     579     578         9       180.000      15.16700    2     ; C-C-C-C, prebuilt X-ca-ca-X
  575     580     579     645         9       180.000      15.16700    2     ; C-C-C-H, prebuilt X-ca-ca-X
  576     575     573     636         9       180.000       1.25520    2     ; C-C-N-C, prebuilt X-ca-na-X
  576     575     580     579         9       180.000      15.16700    2     ; C-C-C-C, prebuilt X-ca-ca-X
  576     575     580     644         9       180.000      15.16700    2     ; C-C-C-H, prebuilt X-ca-ca-X
  576     577     578     579         9       180.000      15.16700    2     ; C-C-C-C, prebuilt X-ca-ca-X
  576     577     578     581         9       180.000      15.16700    2     ; C-C-C-N, prebuilt X-ca-ca-X
  577     576     575     580         9       180.000      15.16700    2     ; C-C-C-C, prebuilt X-ca-ca-X
  577     578     579     580         9       180.000      15.16700    2     ; C-C-C-C, prebuilt X-ca-ca-X
  577     578     579     645         9       180.000      15.16700    2     ; C-C-C-H, prebuilt X-ca-ca-X
  577     578     581     582         9       180.000       1.88280    2     ; C-C-N-C, prebuilt X-ca-n-X
  577     578     581     585         9       180.000       1.88280    2     ; C-C-N-C, prebuilt X-ca-n-X
  578     577     576     642         9       180.000      15.16700    2     ; C-C-C-H, prebuilt X-ca-ca-X
  578     579     580     644         9       180.000      15.16700    2     ; C-C-C-H, prebuilt X-ca-ca-X
  578     581     582     583         9       180.000      10.46000    2     ; C-N-C-C, prebuilt X-c-n-X
  578     581     582     606         9       180.000      10.46000    2     ; C-N-C-O, prebuilt X-c-n-X
  578     581     585     584         9       180.000      10.46000    2     ; C-N-C-C, prebuilt X-c-n-X
  578     581     585     586         9       180.000      10.46000    2     ; C-N-C-O, prebuilt X-c-n-X
  579     578     577     643         9       180.000      15.16700    2     ; C-C-C-H, prebuilt X-ca-ca-X
  579     578     581     582         9       180.000       1.88280    2     ; C-C-N-C, prebuilt X-ca-n-X
  579     578     581     585         9       180.000       1.88280    2     ; C-C-N-C, prebuilt X-ca-n-X
  580     575     573     636         9       180.000       1.25520    2     ; C-C-N-C, prebuilt X-ca-na-X
  580     575     576     642         9       180.000      15.16700    2     ; C-C-C-H, prebuilt X-ca-ca-X
  580     579     578     581         9       180.000      15.16700    2     ; C-C-C-N, prebuilt X-ca-ca-X
  581     578     577     643         9       180.000      15.16700    2     ; N-C-C-H, prebuilt X-ca-ca-X
  581     578     579     645         9       180.000      15.16700    2     ; N-C-C-H, prebuilt X-ca-ca-X
  581     582     583     584         9       180.000       4.18400    2     ; N-C-C-C, prebuilt X-c-ca-X
  581     582     583     587         9       180.000       4.18400    2     ; N-C-C-C, prebuilt X-c-ca-X
  581     585     584     583         9       180.000       4.18400    2     ; N-C-C-C, prebuilt X-c-ca-X
  581     585     584     590         9       180.000       4.18400    2     ; N-C-C-C, prebuilt X-c-ca-X
  582     581     585     584         9       180.000      10.46000    2     ; C-N-C-C, prebuilt X-c-n-X
  582     581     585     586         9       180.000      10.46000    2     ; C-N-C-O, prebuilt X-c-n-X
  582     583     584     585         9       180.000      15.16700    2     ; C-C-C-C, prebuilt X-ca-ca-X
  582     583     584     590         9       180.000      15.16700    2     ; C-C-C-C, prebuilt X-ca-ca-X
  582     583     587     588         9       180.000      15.16700    2     ; C-C-C-C, prebuilt X-ca-ca-X
  582     583     587     646         9       180.000      15.16700    2     ; C-C-C-H, prebuilt X-ca-ca-X
  583     582     581     585         9       180.000      10.46000    2     ; C-C-N-C, prebuilt X-c-n-X
  583     584     585     586         9       180.000       4.18400    2     ; C-C-C-O, prebuilt X-c-ca-X
  583     584     590     589         9       180.000      15.16700    2     ; C-C-C-C, prebuilt X-ca-ca-X
  583     584     590     648         9       180.000      15.16700    2     ; C-C-C-H, prebuilt X-ca-ca-X
  583     587     588     589         9       180.000      15.16700    2     ; C-C-C-C, prebuilt X-ca-ca-X
  583     587     588     597         9       180.000      15.16700    2     ; C-C-C-C, prebuilt X-ca-ca-X
  584     583     582     606         9       180.000       4.18400    2     ; C-C-C-O, prebuilt X-c-ca-X
  584     583     587     588         9       180.000      15.16700    2     ; C-C-C-C, prebuilt X-ca-ca-X
  584     583     587     646         9       180.000      15.16700    2     ; C-C-C-H, prebuilt X-ca-ca-X
  584     590     589     588         9       180.000      15.16700    2     ; C-C-C-C, prebuilt X-ca-ca-X
  584     590     589     647         9       180.000      15.16700    2     ; C-C-C-H, prebuilt X-ca-ca-X
  585     581     582     606         9       180.000      10.46000    2     ; C-N-C-O, prebuilt X-c-n-X
  585     584     583     587         9       180.000      15.16700    2     ; C-C-C-C, prebuilt X-ca-ca-X
  585     584     590     589         9       180.000      15.16700    2     ; C-C-C-C, prebuilt X-ca-ca-X
  585     584     590     648         9       180.000      15.16700    2     ; C-C-C-H, prebuilt X-ca-ca-X
  586     585     584     590         9       180.000       4.18400    2     ; O-C-C-C, prebuilt X-c-ca-X
  587     583     582     606         9       180.000       4.18400    2     ; C-C-C-O, prebuilt X-c-ca-X
  587     583     584     590         9       180.000      15.16700    2     ; C-C-C-C, prebuilt X-ca-ca-X
  587     588     589     590         9       180.000      15.16700    2     ; C-C-C-C, prebuilt X-ca-ca-X
  587     588     589     647         9       180.000      15.16700    2     ; C-C-C-H, prebuilt X-ca-ca-X
  587     588     597     591         9         0.000       0.00000    2     ; C-C-C-C, prebuilt X-c3-ca-X
  587     588     597     598         9         0.000       0.00000    2     ; C-C-C-C, prebuilt X-c3-ca-X
  587     588     597     602         9         0.000       0.00000    2     ; C-C-C-C, prebuilt X-c3-ca-X
  588     589     590     648         9       180.000      15.16700    2     ; C-C-C-H, prebuilt X-ca-ca-X
  588     597     591     592         9         0.000       0.00000    2     ; C-C-C-C, prebuilt X-c3-ca-X
  588     597     591     594         9         0.000       0.00000    2     ; C-C-C-C, prebuilt X-c3-ca-X
  588     597     598     599         9         0.000       0.65084    3     ; C-C-C-F, prebuilt X-c3-c3-X
  588     597     598     600         9         0.000       0.65084    3     ; C-C-C-F, prebuilt X-c3-c3-X
  588     597     598     601         9         0.000       0.65084    3     ; C-C-C-F, prebuilt X-c3-c3-X
  588     597     602     603         9         0.000       0.65084    3     ; C-C-C-F, prebuilt X-c3-c3-X
  588     597     602     604         9         0.000       0.65084    3     ; C-C-C-F, prebuilt X-c3-c3-X
  588     597     602     605         9         0.000       0.65084    3     ; C-C-C-F, prebuilt X-c3-c3-X
  589     588     587     646         9       180.000      15.16700    2     ; C-C-C-H, prebuilt X-ca-ca-X
  589     588     597     591         9         0.000       0.00000    2     ; C-C-C-C, prebuilt X-c3-ca-X
  589     588     597     598         9         0.000       0.00000    2     ; C-C-C-C, prebuilt X-c3-ca-X
  589     588     597     602         9         0.000       0.00000    2     ; C-C-C-C, prebuilt X-c3-ca-X
  590     589     588     597         9       180.000      15.16700    2     ; C-C-C-C, prebuilt X-ca-ca-X
  591     592     593     595         9       180.000      15.16700    2     ; C-C-C-C, prebuilt X-ca-ca-X
  591     592     593     607         9       180.000      15.16700    2     ; C-C-C-C, prebuilt X-ca-ca-X
  591     594     596     595         9       180.000      15.16700    2     ; C-C-C-C, prebuilt X-ca-ca-X
  591     594     596     651         9       180.000      15.16700    2     ; C-C-C-H, prebuilt X-ca-ca-X
  591     597     598     599         9         0.000       0.65084    3     ; C-C-C-F, prebuilt X-c3-c3-X
  591     597     598     600         9         0.000       0.65084    3     ; C-C-C-F, prebuilt X-c3-c3-X
  591     597     598     601         9         0.000       0.65084    3     ; C-C-C-F, prebuilt X-c3-c3-X
  591     597     602     603         9         0.000       0.65084    3     ; C-C-C-F, prebuilt X-c3-c3-X
  591     597     602     604         9         0.000       0.65084    3     ; C-C-C-F, prebuilt X-c3-c3-X
  591     597     602     605         9         0.000       0.65084    3     ; C-C-C-F, prebuilt X-c3-c3-X
  592     591     594     596         9       180.000      15.16700    2     ; C-C-C-C, prebuilt X-ca-ca-X
  592     591     594     649         9       180.000      15.16700    2     ; C-C-C-H, prebuilt X-ca-ca-X
  592     591     597     598         9         0.000       0.00000    2     ; C-C-C-C, prebuilt X-c3-ca-X
  592     591     597     602         9         0.000       0.00000    2     ; C-C-C-C, prebuilt X-c3-ca-X
  592     593     595     596         9       180.000      15.16700    2     ; C-C-C-C, prebuilt X-ca-ca-X
  592     593     595     609         9       180.000      15.16700    2     ; C-C-C-C, prebuilt X-ca-ca-X
  592     593     607     608         9       180.000       4.18400    2     ; C-C-C-N, prebuilt X-c-ca-X
  592     593     607     652         9       180.000       4.18400    2     ; C-C-C-O, prebuilt X-c-ca-X
  593     592     591     594         9       180.000      15.16700    2     ; C-C-C-C, prebuilt X-ca-ca-X
  593     592     591     597         9       180.000      15.16700    2     ; C-C-C-C, prebuilt X-ca-ca-X
  593     595     596     594         9       180.000      15.16700    2     ; C-C-C-C, prebuilt X-ca-ca-X
  593     595     596     651         9       180.000      15.16700    2     ; C-C-C-H, prebuilt X-ca-ca-X
  593     595     609     608         9       180.000       4.18400    2     ; C-C-C-N, prebuilt X-c-ca-X
  593     595     609     610         9       180.000       4.18400    2     ; C-C-C-O, prebuilt X-c-ca-X
  593     607     608     609         9       180.000      10.46000    2     ; C-C-N-C, prebuilt X-c-n-X
  593     607     608     724         9       180.000      10.46000    2     ; C-C-N-C, prebuilt X-c-n-X
  594     591     592     650         9       180.000      15.16700    2     ; C-C-C-H, prebuilt X-ca-ca-X
  594     591     597     598         9         0.000       0.00000    2     ; C-C-C-C, prebuilt X-c3-ca-X
  594     591     597     602         9         0.000       0.00000    2     ; C-C-C-C, prebuilt X-c3-ca-X
  594     596     595     609         9       180.000      15.16700    2     ; C-C-C-C, prebuilt X-ca-ca-X
  595     593     592     650         9       180.000      15.16700    2     ; C-C-C-H, prebuilt X-ca-ca-X
  595     593     607     608         9       180.000       4.18400    2     ; C-C-C-N, prebuilt X-c-ca-X
  595     593     607     652         9       180.000       4.18400    2     ; C-C-C-O, prebuilt X-c-ca-X
  595     596     594     649         9       180.000      15.16700    2     ; C-C-C-H, prebuilt X-ca-ca-X
  595     609     608     607         9       180.000      10.46000    2     ; C-C-N-C, prebuilt X-c-n-X
  595     609     608     724         9       180.000      10.46000    2     ; C-C-N-C, prebuilt X-c-n-X
  596     594     591     597         9       180.000      15.16700    2     ; C-C-C-C, prebuilt X-ca-ca-X
  596     595     593     607         9       180.000      15.16700    2     ; C-C-C-C, prebuilt X-ca-ca-X
  596     595     609     608         9       180.000       4.18400    2     ; C-C-C-N, prebuilt X-c-ca-X
  596     595     609     610         9       180.000       4.18400    2     ; C-C-C-O, prebuilt X-c-ca-X
  597     588     587     646         9       180.000      15.16700    2     ; C-C-C-H, prebuilt X-ca-ca-X
  597     588     589     647         9       180.000      15.16700    2     ; C-C-C-H, prebuilt X-ca-ca-X
  597     591     592     650         9       180.000      15.16700    2     ; C-C-C-H, prebuilt X-ca-ca-X
  597     591     594     649         9       180.000      15.16700    2     ; C-C-C-H, prebuilt X-ca-ca-X
  598     597     602     603         9         0.000       0.65084    3     ; C-C-C-F, prebuilt X-c3-c3-X
  598     597     602     604         9         0.000       0.65084    3     ; C-C-C-F, prebuilt X-c3-c3-X
  598     597     602     605         9         0.000       0.65084    3     ; C-C-C-F, prebuilt X-c3-c3-X
  599     598     597     602         9         0.000       0.65084    3     ; F-C-C-C, prebuilt X-c3-c3-X
  600     598     597     602         9         0.000       0.65084    3     ; F-C-C-C, prebuilt X-c3-c3-X
  601     598     597     602         9         0.000       0.65084    3     ; F-C-C-C, prebuilt X-c3-c3-X
  607     593     592     650         9       180.000      15.16700    2     ; C-C-C-H, prebuilt X-ca-ca-X
  607     593     595     609         9       180.000      15.16700    2     ; C-C-C-C, prebuilt X-ca-ca-X
  607     608     609     610         9       180.000      10.46000    2     ; C-N-C-O, prebuilt X-c-n-X
  607     608     724     723         9       180.000       1.88280    2     ; C-N-C-C, prebuilt X-ca-n-X
  607     608     724     725         9       180.000       1.88280    2     ; C-N-C-C, prebuilt X-ca-n-X
  608     724     723     722         9       180.000      15.16700    2     ; N-C-C-C, prebuilt X-ca-ca-X
  608     724     723     751         9       180.000      15.16700    2     ; N-C-C-H, prebuilt X-ca-ca-X
  608     724     725     726         9       180.000      15.16700    2     ; N-C-C-C, prebuilt X-ca-ca-X
  608     724     725     753         9       180.000      15.16700    2     ; N-C-C-H, prebuilt X-ca-ca-X
  609     595     596     651         9       180.000      15.16700    2     ; C-C-C-H, prebuilt X-ca-ca-X
  609     608     607     652         9       180.000      10.46000    2     ; C-N-C-O, prebuilt X-c-n-X
  609     608     724     723         9       180.000       1.88280    2     ; C-N-C-C, prebuilt X-ca-n-X
  609     608     724     725         9       180.000       1.88280    2     ; C-N-C-C, prebuilt X-ca-n-X
  610     609     608     724         9       180.000      10.46000    2     ; O-C-N-C, prebuilt X-c-n-X
  611     574     572     637         9       180.000       2.61500    2     ; C-C-N-C, prebuilt X-c2-na-X
  611     574     572     663         9       180.000       2.61500    2     ; C-C-N-C, prebuilt X-c2-na-X
  611     574     573     636         9       180.000       2.61500    2     ; C-C-N-C, prebuilt X-c2-na-X
  611     612     614     616         9       180.000      15.16700    2     ; C-C-C-C, prebuilt X-ca-ca-X
  611     612     614     654         9       180.000      15.16700    2     ; C-C-C-H, prebuilt X-ca-ca-X
  611     613     615     616         9       180.000      15.16700    2     ; C-C-C-C, prebuilt X-ca-ca-X
  611     613     615     661         9       180.000      15.16700    2     ; C-C-C-H, prebuilt X-ca-ca-X
  612     611     613     615         9       180.000      15.16700    2     ; C-C-C-C, prebuilt X-ca-ca-X
  612     611     613     655         9       180.000      15.16700    2     ; C-C-C-H, prebuilt X-ca-ca-X
  612     614     616     615         9       180.000      15.16700    2     ; C-C-C-C, prebuilt X-ca-ca-X
  612     614     616     617         9       180.000      15.16700    2     ; C-C-C-C, prebuilt X-ca-ca-X
  613     611     612     614         9       180.000      15.16700    2     ; C-C-C-C, prebuilt X-ca-ca-X
  613     611     612     653         9       180.000      15.16700    2     ; C-C-C-H, prebuilt X-ca-ca-X
  613     615     616     614         9       180.000      15.16700    2     ; C-C-C-C, prebuilt X-ca-ca-X
  613     615     616     617         9       180.000      15.16700    2     ; C-C-C-C, prebuilt X-ca-ca-X
  614     616     615     661         9       180.000      15.16700    2     ; C-C-C-H, prebuilt X-ca-ca-X
  614     616     617     618         9       180.000       2.92880    2     ; C-C-C-N, prebuilt X-c2-ca-X
  614     616     617     619         9       180.000       2.92880    2     ; C-C-C-N, prebuilt X-c2-ca-X
  615     616     614     654         9       180.000      15.16700    2     ; C-C-C-H, prebuilt X-ca-ca-X
  615     616     617     618         9       180.000       2.92880    2     ; C-C-C-N, prebuilt X-c2-ca-X
  615     616     617     619         9       180.000       2.92880    2     ; C-C-C-N, prebuilt X-c2-ca-X
  616     614     612     653         9       180.000      15.16700    2     ; C-C-C-H, prebuilt X-ca-ca-X
  616     615     613     655         9       180.000      15.16700    2     ; C-C-C-H, prebuilt X-ca-ca-X
  616     617     618     620         9       180.000       2.61500    2     ; C-C-N-C, prebuilt X-c2-na-X
  616     617     618     626         9       180.000       2.61500    2     ; C-C-N-C, prebuilt X-c2-na-X
  616     617     619     621         9       180.000       2.61500    2     ; C-C-N-C, prebuilt X-c2-na-X
  616     617     619     622         9       180.000       2.61500    2     ; C-C-N-C, prebuilt X-c2-na-X
  617     616     614     654         9       180.000      15.16700    2     ; C-C-C-H, prebuilt X-ca-ca-X
  617     616     615     661         9       180.000      15.16700    2     ; C-C-C-H, prebuilt X-ca-ca-X
  617     618     620     621         9       180.000       2.61500    2     ; C-N-C-C, prebuilt X-c2-na-X
  617     618     620     660         9       180.000       2.61500    2     ; C-N-C-H, prebuilt X-c2-na-X
  617     618     626     627         9       180.000       1.25520    2     ; C-N-C-C, prebuilt X-ca-na-X
  617     618     626     631         9       180.000       1.25520    2     ; C-N-C-C, prebuilt X-ca-na-X
  617     619     621     620         9       180.000       2.61500    2     ; C-N-C-C, prebuilt X-c2-na-X
  617     619     621     632         9       180.000       2.61500    2     ; C-N-C-C, prebuilt X-c2-na-X
  617     619     622     623         9         0.000       0.00000    2     ; C-N-C-H, prebuilt X-c3-na-X
  617     619     622     624         9         0.000       0.00000    2     ; C-N-C-H, prebuilt X-c3-na-X
  617     619     622     625         9         0.000       0.00000    2     ; C-N-C-H, prebuilt X-c3-na-X
  618     617     619     621         9       180.000       2.61500    2     ; N-C-N-C, prebuilt X-c2-na-X
  618     617     619     622         9       180.000       2.61500    2     ; N-C-N-C, prebuilt X-c2-na-X
  618     620     621     619         9       180.000      27.82360    2     ; N-C-C-N, prebuilt X-c2-c2-X
  618     620     621     632         9       180.000      27.82360    2     ; N-C-C-C, prebuilt X-c2-c2-X
  618     626     627     628         9       180.000      15.16700    2     ; N-C-C-C, prebuilt X-ca-ca-X
  618     626     627     657         9       180.000      15.16700    2     ; N-C-C-H, prebuilt X-ca-ca-X
  618     626     631     630         9       180.000      15.16700    2     ; N-C-C-C, prebuilt X-ca-ca-X
  618     626     631     659         9       180.000      15.16700    2     ; N-C-C-H, prebuilt X-ca-ca-X
  619     617     618     620         9       180.000       2.61500    2     ; N-C-N-C, prebuilt X-c2-na-X
  619     617     618     626         9       180.000       2.61500    2     ; N-C-N-C, prebuilt X-c2-na-X
  619     621     620     660         9       180.000      27.82360    2     ; N-C-C-H, prebuilt X-c2-c2-X
  619     621     632     633         9         0.000       0.00000    2     ; N-C-C-F, prebuilt X-c2-c3-X
  619     621     632     634         9         0.000       0.00000    2     ; N-C-C-F, prebuilt X-c2-c3-X
  619     621     632     635         9         0.000       0.00000    2     ; N-C-C-F, prebuilt X-c2-c3-X
  620     618     626     627         9       180.000       1.25520    2     ; C-N-C-C, prebuilt X-ca-na-X
  620     618     626     631         9       180.000       1.25520    2     ; C-N-C-C, prebuilt X-ca-na-X
  620     621     619     622         9       180.000       2.61500    2     ; C-C-N-C, prebuilt X-c2-na-X
  620     621     632     633         9         0.000       0.00000    2     ; C-C-C-F, prebuilt X-c2-c3-X
  620     621     632     634         9         0.000       0.00000    2     ; C-C-C-F, prebuilt X-c2-c3-X
  620     621     632     635         9         0.000       0.00000    2     ; C-C-C-F, prebuilt X-c2-c3-X
  621     619     622     623         9         0.000       0.00000    2     ; C-N-C-H, prebuilt X-c3-na-X
  621     619     622     624         9         0.000       0.00000    2     ; C-N-C-H, prebuilt X-c3-na-X
  621     619     622     625         9         0.000       0.00000    2     ; C-N-C-H, prebuilt X-c3-na-X
  621     620     618     626         9       180.000       2.61500    2     ; C-C-N-C, prebuilt X-c2-na-X
  622     619     621     632         9       180.000       2.61500    2     ; C-N-C-C, prebuilt X-c2-na-X
  626     618     620     660         9       180.000       2.61500    2     ; C-N-C-H, prebuilt X-c2-na-X
  626     627     628     629         9       180.000      15.16700    2     ; C-C-C-C, prebuilt X-ca-ca-X
  626     627     628     656         9       180.000      15.16700    2     ; C-C-C-H, prebuilt X-ca-ca-X
  626     631     630     629         9       180.000      15.16700    2     ; C-C-C-C, prebuilt X-ca-ca-X
  626     631     630     658         9       180.000      15.16700    2     ; C-C-C-H, prebuilt X-ca-ca-X
  627     626     631     630         9       180.000      15.16700    2     ; C-C-C-C, prebuilt X-ca-ca-X
  627     626     631     659         9       180.000      15.16700    2     ; C-C-C-H, prebuilt X-ca-ca-X
  627     628     629     630         9       180.000      15.16700    2     ; C-C-C-C, prebuilt X-ca-ca-X
  628     627     626     631         9       180.000      15.16700    2     ; C-C-C-C, prebuilt X-ca-ca-X
  628     629     630     631         9       180.000      15.16700    2     ; C-C-C-C, prebuilt X-ca-ca-X
  628     629     630     658         9       180.000      15.16700    2     ; C-C-C-H, prebuilt X-ca-ca-X
  629     628     627     657         9       180.000      15.16700    2     ; C-C-C-H, prebuilt X-ca-ca-X
  629     630     631     659         9       180.000      15.16700    2     ; C-C-C-H, prebuilt X-ca-ca-X
  630     629     628     656         9       180.000      15.16700    2     ; C-C-C-H, prebuilt X-ca-ca-X
  631     626     627     657         9       180.000      15.16700    2     ; C-C-C-H, prebuilt X-ca-ca-X
  632     621     620     660         9       180.000      27.82360    2     ; C-C-C-H, prebuilt X-c2-c2-X
  636     637     572     663         9       180.000       2.61500    2     ; C-C-N-C, prebuilt X-c2-na-X
  636     637     638     639         9         0.000       0.00000    2     ; C-C-C-F, prebuilt X-c2-c3-X
  636     637     638     640         9         0.000       0.00000    2     ; C-C-C-F, prebuilt X-c2-c3-X
  636     637     638     662         9         0.000       0.00000    2     ; C-C-C-F, prebuilt X-c2-c3-X
  637     572     663     664         9         0.000       0.00000    2     ; C-N-C-H, prebuilt X-c3-na-X
  637     572     663     665         9         0.000       0.00000    2     ; C-N-C-H, prebuilt X-c3-na-X
  637     572     663     666         9         0.000       0.00000    2     ; C-N-C-H, prebuilt X-c3-na-X
  638     637     572     663         9       180.000       2.61500    2     ; C-C-N-C, prebuilt X-c2-na-X
  638     637     636     641         9       180.000      27.82360    2     ; C-C-C-H, prebuilt X-c2-c2-X
  642     576     577     643         9       180.000      15.16700    2     ; H-C-C-H, prebuilt X-ca-ca-X
  644     580     579     645         9       180.000      15.16700    2     ; H-C-C-H, prebuilt X-ca-ca-X
  647     589     590     648         9       180.000      15.16700    2     ; H-C-C-H, prebuilt X-ca-ca-X
  649     594     596     651         9       180.000      15.16700    2     ; H-C-C-H, prebuilt X-ca-ca-X
  652     607     608     724         9       180.000      10.46000    2     ; O-C-N-C, prebuilt X-c-n-X
  653     612     614     654         9       180.000      15.16700    2     ; H-C-C-H, prebuilt X-ca-ca-X
  655     613     615     661         9       180.000      15.16700    2     ; H-C-C-H, prebuilt X-ca-ca-X
  656     628     627     657         9       180.000      15.16700    2     ; H-C-C-H, prebuilt X-ca-ca-X
  658     630     631     659         9       180.000      15.16700    2     ; H-C-C-H, prebuilt X-ca-ca-X
  667     669     668     670         9       180.000       2.61500    2     ; N-C-N-C, prebuilt X-c2-na-X
  667     669     668     731         9       180.000       2.61500    2     ; N-C-N-C, prebuilt X-c2-na-X
  667     669     706     707         9       180.000       2.92880    2     ; N-C-C-C, prebuilt X-c2-ca-X
  667     669     706     708         9       180.000       2.92880    2     ; N-C-C-C, prebuilt X-c2-ca-X
  667     732     731     668         9       180.000      27.82360    2     ; N-C-C-N, prebuilt X-c2-c2-X
  667     732     731     736         9       180.000      27.82360    2     ; N-C-C-H, prebuilt X-c2-c2-X
  667     732     733     734         9         0.000       0.00000    2     ; N-C-C-F, prebuilt X-c2-c3-X
  667     732     733     735         9         0.000       0.00000    2     ; N-C-C-F, prebuilt X-c2-c3-X
  667     732     733     757         9         0.000       0.00000    2     ; N-C-C-F, prebuilt X-c2-c3-X
  668     669     667     732         9       180.000       2.61500    2     ; N-C-N-C, prebuilt X-c2-na-X
  668     669     667     758         9       180.000       2.61500    2     ; N-C-N-C, prebuilt X-c2-na-X
  668     669     706     707         9       180.000       2.92880    2     ; N-C-C-C, prebuilt X-c2-ca-X
  668     669     706     708         9       180.000       2.92880    2     ; N-C-C-C, prebuilt X-c2-ca-X
  668     670     671     672         9       180.000      15.16700    2     ; N-C-C-C, prebuilt X-ca-ca-X
  668     670     671     737         9       180.000      15.16700    2     ; N-C-C-H, prebuilt X-ca-ca-X
  668     670     675     674         9       180.000      15.16700    2     ; N-C-C-C, prebuilt X-ca-ca-X
  668     670     675     739         9       180.000      15.16700    2     ; N-C-C-H, prebuilt X-ca-ca-X
  668     731     732     733         9       180.000      27.82360    2     ; N-C-C-C, prebuilt X-c2-c2-X
  669     667     732     731         9       180.000       2.61500    2     ; C-N-C-C, prebuilt X-c2-na-X
  669     667     732     733         9       180.000       2.61500    2     ; C-N-C-C, prebuilt X-c2-na-X
  669     667     758     759         9         0.000       0.00000    2     ; C-N-C-H, prebuilt X-c3-na-X
  669     667     758     760         9         0.000       0.00000    2     ; C-N-C-H, prebuilt X-c3-na-X
  669     667     758     761         9         0.000       0.00000    2     ; C-N-C-H, prebuilt X-c3-na-X
  669     668     670     671         9       180.000       1.25520    2     ; C-N-C-C, prebuilt X-ca-na-X
  669     668     670     675         9       180.000       1.25520    2     ; C-N-C-C, prebuilt X-ca-na-X
  669     668     731     732         9       180.000       2.61500    2     ; C-N-C-C, prebuilt X-c2-na-X
  669     668     731     736         9       180.000       2.61500    2     ; C-N-C-H, prebuilt X-c2-na-X
  669     706     707     709         9       180.000      15.16700    2     ; C-C-C-C, prebuilt X-ca-ca-X
  669     706     707     748         9       180.000      15.16700    2     ; C-C-C-H, prebuilt X-ca-ca-X
  669     706     708     710         9       180.000      15.16700    2     ; C-C-C-C, prebuilt X-ca-ca-X
  669     706     708     750         9       180.000      15.16700    2     ; C-C-C-H, prebuilt X-ca-ca-X
  670     668     669     706         9       180.000       2.61500    2     ; C-N-C-C, prebuilt X-c2-na-X
  670     668     731     732         9       180.000       2.61500    2     ; C-N-C-C, prebuilt X-c2-na-X
  670     668     731     736         9       180.000       2.61500    2     ; C-N-C-H, prebuilt X-c2-na-X
  670     671     672     673         9       180.000      15.16700    2     ; C-C-C-C, prebuilt X-ca-ca-X
  670     671     672     738         9       180.000      15.16700    2     ; C-C-C-H, prebuilt X-ca-ca-X
  670     675     674     673         9       180.000      15.16700    2     ; C-C-C-C, prebuilt X-ca-ca-X
  670     675     674     740         9       180.000      15.16700    2     ; C-C-C-H, prebuilt X-ca-ca-X
  671     670     668     731         9       180.000       1.25520    2     ; C-C-N-C, prebuilt X-ca-na-X
  671     670     675     674         9       180.000      15.16700    2     ; C-C-C-C, prebuilt X-ca-ca-X
  671     670     675     739         9       180.000      15.16700    2     ; C-C-C-H, prebuilt X-ca-ca-X
  671     672     673     674         9       180.000      15.16700    2     ; C-C-C-C, prebuilt X-ca-ca-X
  671     672     673     676         9       180.000      15.16700    2     ; C-C-C-N, prebuilt X-ca-ca-X
  672     671     670     675         9       180.000      15.16700    2     ; C-C-C-C, prebuilt X-ca-ca-X
  672     673     674     675         9       180.000      15.16700    2     ; C-C-C-C, prebuilt X-ca-ca-X
  672     673     674     740         9       180.000      15.16700    2     ; C-C-C-H, prebuilt X-ca-ca-X
  672     673     676     677         9       180.000       1.88280    2     ; C-C-N-C, prebuilt X-ca-n-X
  672     673     676     680         9       180.000       1.88280    2     ; C-C-N-C, prebuilt X-ca-n-X
  673     672     671     737         9       180.000      15.16700    2     ; C-C-C-H, prebuilt X-ca-ca-X
  673     674     675     739         9       180.000      15.16700    2     ; C-C-C-H, prebuilt X-ca-ca-X
  673     676     677     678         9       180.000      10.46000    2     ; C-N-C-C, prebuilt X-c-n-X
  673     676     677     701         9       180.000      10.46000    2     ; C-N-C-O, prebuilt X-c-n-X
  673     676     680     679         9       180.000      10.46000    2     ; C-N-C-C, prebuilt X-c-n-X
  673     676     680     681         9       180.000      10.46000    2     ; C-N-C-O, prebuilt X-c-n-X
  674     673     672     738         9       180.000      15.16700    2     ; C-C-C-H, prebuilt X-ca-ca-X
  674     673     676     677         9       180.000       1.88280    2     ; C-C-N-C, prebuilt X-ca-n-X
  674     673     676     680         9       180.000       1.88280    2     ; C-C-N-C, prebuilt X-ca-n-X
  675     670     668     731         9       180.000       1.25520    2     ; C-C-N-C, prebuilt X-ca-na-X
  675     670     671     737         9       180.000      15.16700    2     ; C-C-C-H, prebuilt X-ca-ca-X
  675     674     673     676         9       180.000      15.16700    2     ; C-C-C-N, prebuilt X-ca-ca-X
  676     673     672     738         9       180.000      15.16700    2     ; N-C-C-H, prebuilt X-ca-ca-X
  676     673     674     740         9       180.000      15.16700    2     ; N-C-C-H, prebuilt X-ca-ca-X
  676     677     678     679         9       180.000       4.18400    2     ; N-C-C-C, prebuilt X-c-ca-X
  676     677     678     682         9       180.000       4.18400    2     ; N-C-C-C, prebuilt X-c-ca-X
  676     680     679     678         9       180.000       4.18400    2     ; N-C-C-C, prebuilt X-c-ca-X
  676     680     679     685         9       180.000       4.18400    2     ; N-C-C-C, prebuilt X-c-ca-X
  677     676     680     679         9       180.000      10.46000    2     ; C-N-C-C, prebuilt X-c-n-X
  677     676     680     681         9       180.000      10.46000    2     ; C-N-C-O, prebuilt X-c-n-X
  677     678     679     680         9       180.000      15.16700    2     ; C-C-C-C, prebuilt X-ca-ca-X
  677     678     679     685         9       180.000      15.16700    2     ; C-C-C-C, prebuilt X-ca-ca-X
  677     678     682     683         9       180.000      15.16700    2     ; C-C-C-C, prebuilt X-ca-ca-X
  677     678     682     741         9       180.000      15.16700    2     ; C-C-C-H, prebuilt X-ca-ca-X
  678     677     676     680         9       180.000      10.46000    2     ; C-C-N-C, prebuilt X-c-n-X
  678     679     680     681         9       180.000       4.18400    2     ; C-C-C-O, prebuilt X-c-ca-X
  678     679     685     684         9       180.000      15.16700    2     ; C-C-C-C, prebuilt X-ca-ca-X
  678     679     685     743         9       180.000      15.16700    2     ; C-C-C-H, prebuilt X-ca-ca-X
  678     682     683     684         9       180.000      15.16700    2     ; C-C-C-C, prebuilt X-ca-ca-X
  678     682     683     692         9       180.000      15.16700    2     ; C-C-C-C, prebuilt X-ca-ca-X
  679     678     677     701         9       180.000       4.18400    2     ; C-C-C-O, prebuilt X-c-ca-X
  679     678     682     683         9       180.000      15.16700    2     ; C-C-C-C, prebuilt X-ca-ca-X
  679     678     682     741         9       180.000      15.16700    2     ; C-C-C-H, prebuilt X-ca-ca-X
  679     685     684     683         9       180.000      15.16700    2     ; C-C-C-C, prebuilt X-ca-ca-X
  679     685     684     742         9       180.000      15.16700    2     ; C-C-C-H, prebuilt X-ca-ca-X
  680     676     677     701         9       180.000      10.46000    2     ; C-N-C-O, prebuilt X-c-n-X
  680     679     678     682         9       180.000      15.16700    2     ; C-C-C-C, prebuilt X-ca-ca-X
  680     679     685     684         9       180.000      15.16700    2     ; C-C-C-C, prebuilt X-ca-ca-X
  680     679     685     743         9       180.000      15.16700    2     ; C-C-C-H, prebuilt X-ca-ca-X
  681     680     679     685         9       180.000       4.18400    2     ; O-C-C-C, prebuilt X-c-ca-X
  682     678     677     701         9       180.000       4.18400    2     ; C-C-C-O, prebuilt X-c-ca-X
  682     678     679     685         9       180.000      15.16700    2     ; C-C-C-C, prebuilt X-ca-ca-X
  682     683     684     685         9       180.000      15.16700    2     ; C-C-C-C, prebuilt X-ca-ca-X
  682     683     684     742         9       180.000      15.16700    2     ; C-C-C-H, prebuilt X-ca-ca-X
  682     683     692     686         9         0.000       0.00000    2     ; C-C-C-C, prebuilt X-c3-ca-X
  682     683     692     693         9         0.000       0.00000    2     ; C-C-C-C, prebuilt X-c3-ca-X
  682     683     692     697         9         0.000       0.00000    2     ; C-C-C-C, prebuilt X-c3-ca-X
  683     684     685     743         9       180.000      15.16700    2     ; C-C-C-H, prebuilt X-ca-ca-X
  683     692     686     687         9         0.000       0.00000    2     ; C-C-C-C, prebuilt X-c3-ca-X
  683     692     686     689         9         0.000       0.00000    2     ; C-C-C-C, prebuilt X-c3-ca-X
  683     692     693     694         9         0.000       0.65084    3     ; C-C-C-F, prebuilt X-c3-c3-X
  683     692     693     695         9         0.000       0.65084    3     ; C-C-C-F, prebuilt X-c3-c3-X
  683     692     693     696         9         0.000       0.65084    3     ; C-C-C-F, prebuilt X-c3-c3-X
  683     692     697     698         9         0.000       0.65084    3     ; C-C-C-F, prebuilt X-c3-c3-X
  683     692     697     699         9         0.000       0.65084    3     ; C-C-C-F, prebuilt X-c3-c3-X
  683     692     697     700         9         0.000       0.65084    3     ; C-C-C-F, prebuilt X-c3-c3-X
  684     683     682     741         9       180.000      15.16700    2     ; C-C-C-H, prebuilt X-ca-ca-X
  684     683     692     686         9         0.000       0.00000    2     ; C-C-C-C, prebuilt X-c3-ca-X
  684     683     692     693         9         0.000       0.00000    2     ; C-C-C-C, prebuilt X-c3-ca-X
  684     683     692     697         9         0.000       0.00000    2     ; C-C-C-C, prebuilt X-c3-ca-X
  685     684     683     692         9       180.000      15.16700    2     ; C-C-C-C, prebuilt X-ca-ca-X
  686     687     688     690         9       180.000      15.16700    2     ; C-C-C-C, prebuilt X-ca-ca-X
  686     687     688     702         9       180.000      15.16700    2     ; C-C-C-C, prebuilt X-ca-ca-X
  686     689     691     690         9       180.000      15.16700    2     ; C-C-C-C, prebuilt X-ca-ca-X
  686     689     691     746         9       180.000      15.16700    2     ; C-C-C-H, prebuilt X-ca-ca-X
  686     692     693     694         9         0.000       0.65084    3     ; C-C-C-F, prebuilt X-c3-c3-X
  686     692     693     695         9         0.000       0.65084    3     ; C-C-C-F, prebuilt X-c3-c3-X
  686     692     693     696         9         0.000       0.65084    3     ; C-C-C-F, prebuilt X-c3-c3-X
  686     692     697     698         9         0.000       0.65084    3     ; C-C-C-F, prebuilt X-c3-c3-X
  686     692     697     699         9         0.000       0.65084    3     ; C-C-C-F, prebuilt X-c3-c3-X
  686     692     697     700         9         0.000       0.65084    3     ; C-C-C-F, prebuilt X-c3-c3-X
  687     686     689     691         9       180.000      15.16700    2     ; C-C-C-C, prebuilt X-ca-ca-X
  687     686     689     744         9       180.000      15.16700    2     ; C-C-C-H, prebuilt X-ca-ca-X
  687     686     692     693         9         0.000       0.00000    2     ; C-C-C-C, prebuilt X-c3-ca-X
  687     686     692     697         9         0.000       0.00000    2     ; C-C-C-C, prebuilt X-c3-ca-X
  687     688     690     691         9       180.000      15.16700    2     ; C-C-C-C, prebuilt X-ca-ca-X
  687     688     690     704         9       180.000      15.16700    2     ; C-C-C-C, prebuilt X-ca-ca-X
  687     688     702     703         9       180.000       4.18400    2     ; C-C-C-N, prebuilt X-c-ca-X
  687     688     702     747         9       180.000       4.18400    2     ; C-C-C-O, prebuilt X-c-ca-X
  688     687     686     689         9       180.000      15.16700    2     ; C-C-C-C, prebuilt X-ca-ca-X
  688     687     686     692         9       180.000      15.16700    2     ; C-C-C-C, prebuilt X-ca-ca-X
  688     690     691     689         9       180.000      15.16700    2     ; C-C-C-C, prebuilt X-ca-ca-X
  688     690     691     746         9       180.000      15.16700    2     ; C-C-C-H, prebuilt X-ca-ca-X
  688     690     704     703         9       180.000       4.18400    2     ; C-C-C-N, prebuilt X-c-ca-X
  688     690     704     705         9       180.000       4.18400    2     ; C-C-C-O, prebuilt X-c-ca-X
  688     702     703     704         9       180.000      10.46000    2     ; C-C-N-C, prebuilt X-c-n-X
  688     702     703     819         9       180.000      10.46000    2     ; C-C-N-C, prebuilt X-c-n-X
  689     686     687     745         9       180.000      15.16700    2     ; C-C-C-H, prebuilt X-ca-ca-X
  689     686     692     693         9         0.000       0.00000    2     ; C-C-C-C, prebuilt X-c3-ca-X
  689     686     692     697         9         0.000       0.00000    2     ; C-C-C-C, prebuilt X-c3-ca-X
  689     691     690     704         9       180.000      15.16700    2     ; C-C-C-C, prebuilt X-ca-ca-X
  690     688     687     745         9       180.000      15.16700    2     ; C-C-C-H, prebuilt X-ca-ca-X
  690     688     702     703         9       180.000       4.18400    2     ; C-C-C-N, prebuilt X-c-ca-X
  690     688     702     747         9       180.000       4.18400    2     ; C-C-C-O, prebuilt X-c-ca-X
  690     691     689     744         9       180.000      15.16700    2     ; C-C-C-H, prebuilt X-ca-ca-X
  690     704     703     702         9       180.000      10.46000    2     ; C-C-N-C, prebuilt X-c-n-X
  690     704     703     819         9       180.000      10.46000    2     ; C-C-N-C, prebuilt X-c-n-X
  691     689     686     692         9       180.000      15.16700    2     ; C-C-C-C, prebuilt X-ca-ca-X
  691     690     688     702         9       180.000      15.16700    2     ; C-C-C-C, prebuilt X-ca-ca-X
  691     690     704     703         9       180.000       4.18400    2     ; C-C-C-N, prebuilt X-c-ca-X
  691     690     704     705         9       180.000       4.18400    2     ; C-C-C-O, prebuilt X-c-ca-X
  692     683     682     741         9       180.000      15.16700    2     ; C-C-C-H, prebuilt X-ca-ca-X
  692     683     684     742         9       180.000      15.16700    2     ; C-C-C-H, prebuilt X-ca-ca-X
  692     686     687     745         9       180.000      15.16700    2     ; C-C-C-H, prebuilt X-ca-ca-X
  692     686     689     744         9       180.000      15.16700    2     ; C-C-C-H, prebuilt X-ca-ca-X
  693     692     697     698         9         0.000       0.65084    3     ; C-C-C-F, prebuilt X-c3-c3-X
  693     692     697     699         9         0.000       0.65084    3     ; C-C-C-F, prebuilt X-c3-c3-X
  693     692     697     700         9         0.000       0.65084    3     ; C-C-C-F, prebuilt X-c3-c3-X
  694     693     692     697         9         0.000       0.65084    3     ; F-C-C-C, prebuilt X-c3-c3-X
  695     693     692     697         9         0.000       0.65084    3     ; F-C-C-C, prebuilt X-c3-c3-X
  696     693     692     697         9         0.000       0.65084    3     ; F-C-C-C, prebuilt X-c3-c3-X
  702     688     687     745         9       180.000      15.16700    2     ; C-C-C-H, prebuilt X-ca-ca-X
  702     688     690     704         9       180.000      15.16700    2     ; C-C-C-C, prebuilt X-ca-ca-X
  702     703     704     705         9       180.000      10.46000    2     ; C-N-C-O, prebuilt X-c-n-X
  702     703     819     818         9       180.000       1.88280    2     ; C-N-C-C, prebuilt X-ca-n-X
  702     703     819     820         9       180.000       1.88280    2     ; C-N-C-C, prebuilt X-ca-n-X
  703     819     818     817         9       180.000      15.16700    2     ; N-C-C-C, prebuilt X-ca-ca-X
  703     819     818     846         9       180.000      15.16700    2     ; N-C-C-H, prebuilt X-ca-ca-X
  703     819     820     821         9       180.000      15.16700    2     ; N-C-C-C, prebuilt X-ca-ca-X
  703     819     820     848         9       180.000      15.16700    2     ; N-C-C-H, prebuilt X-ca-ca-X
  704     690     691     746         9       180.000      15.16700    2     ; C-C-C-H, prebuilt X-ca-ca-X
  704     703     702     747         9       180.000      10.46000    2     ; C-N-C-O, prebuilt X-c-n-X
  704     703     819     818         9       180.000       1.88280    2     ; C-N-C-C, prebuilt X-ca-n-X
  704     703     819     820         9       180.000       1.88280    2     ; C-N-C-C, prebuilt X-ca-n-X
  705     704     703     819         9       180.000      10.46000    2     ; O-C-N-C, prebuilt X-c-n-X
  706     669     667     732         9       180.000       2.61500    2     ; C-C-N-C, prebuilt X-c2-na-X
  706     669     667     758         9       180.000       2.61500    2     ; C-C-N-C, prebuilt X-c2-na-X
  706     669     668     731         9       180.000       2.61500    2     ; C-C-N-C, prebuilt X-c2-na-X
  706     707     709     711         9       180.000      15.16700    2     ; C-C-C-C, prebuilt X-ca-ca-X
  706     707     709     749         9       180.000      15.16700    2     ; C-C-C-H, prebuilt X-ca-ca-X
  706     708     710     711         9       180.000      15.16700    2     ; C-C-C-C, prebuilt X-ca-ca-X
  706     708     710     756         9       180.000      15.16700    2     ; C-C-C-H, prebuilt X-ca-ca-X
  707     706     708     710         9       180.000      15.16700    2     ; C-C-C-C, prebuilt X-ca-ca-X
  707     706     708     750         9       180.000      15.16700    2     ; C-C-C-H, prebuilt X-ca-ca-X
  707     709     711     710         9       180.000      15.16700    2     ; C-C-C-C, prebuilt X-ca-ca-X
  707     709     711     712         9       180.000      15.16700    2     ; C-C-C-C, prebuilt X-ca-ca-X
  708     706     707     709         9       180.000      15.16700    2     ; C-C-C-C, prebuilt X-ca-ca-X
  708     706     707     748         9       180.000      15.16700    2     ; C-C-C-H, prebuilt X-ca-ca-X
  708     710     711     709         9       180.000      15.16700    2     ; C-C-C-C, prebuilt X-ca-ca-X
  708     710     711     712         9       180.000      15.16700    2     ; C-C-C-C, prebuilt X-ca-ca-X
  709     711     710     756         9       180.000      15.16700    2     ; C-C-C-H, prebuilt X-ca-ca-X
  709     711     712     713         9       180.000       2.92880    2     ; C-C-C-N, prebuilt X-c2-ca-X
  709     711     712     714         9       180.000       2.92880    2     ; C-C-C-N, prebuilt X-c2-ca-X
  710     711     709     749         9       180.000      15.16700    2     ; C-C-C-H, prebuilt X-ca-ca-X
  710     711     712     713         9       180.000       2.92880    2     ; C-C-C-N, prebuilt X-c2-ca-X
  710     711     712     714         9       180.000       2.92880    2     ; C-C-C-N, prebuilt X-c2-ca-X
  711     709     707     748         9       180.000      15.16700    2     ; C-C-C-H, prebuilt X-ca-ca-X
  711     710     708     750         9       180.000      15.16700    2     ; C-C-C-H, prebuilt X-ca-ca-X
  711     712     713     715         9       180.000       2.61500    2     ; C-C-N-C, prebuilt X-c2-na-X
  711     712     713     721         9       180.000       2.61500    2     ; C-C-N-C, prebuilt X-c2-na-X
  711     712     714     716         9       180.000       2.61500    2     ; C-C-N-C, prebuilt X-c2-na-X
  711     712     714     717         9       180.000       2.61500    2     ; C-C-N-C, prebuilt X-c2-na-X
  712     711     709     749         9       180.000      15.16700    2     ; C-C-C-H, prebuilt X-ca-ca-X
  712     711     710     756         9       180.000      15.16700    2     ; C-C-C-H, prebuilt X-ca-ca-X
  712     713     715     716         9       180.000       2.61500    2     ; C-N-C-C, prebuilt X-c2-na-X
  712     713     715     755         9       180.000       2.61500    2     ; C-N-C-H, prebuilt X-c2-na-X
  712     713     721     722         9       180.000       1.25520    2     ; C-N-C-C, prebuilt X-ca-na-X
  712     713     721     726         9       180.000       1.25520    2     ; C-N-C-C, prebuilt X-ca-na-X
  712     714     716     715         9       180.000       2.61500    2     ; C-N-C-C, prebuilt X-c2-na-X
  712     714     716     727         9       180.000       2.61500    2     ; C-N-C-C, prebuilt X-c2-na-X
  712     714     717     718         9         0.000       0.00000    2     ; C-N-C-H, prebuilt X-c3-na-X
  712     714     717     719         9         0.000       0.00000    2     ; C-N-C-H, prebuilt X-c3-na-X
  712     714     717     720         9         0.000       0.00000    2     ; C-N-C-H, prebuilt X-c3-na-X
  713     712     714     716         9       180.000       2.61500    2     ; N-C-N-C, prebuilt X-c2-na-X
  713     712     714     717         9       180.000       2.61500    2     ; N-C-N-C, prebuilt X-c2-na-X
  713     715     716     714         9       180.000      27.82360    2     ; N-C-C-N, prebuilt X-c2-c2-X
  713     715     716     727         9       180.000      27.82360    2     ; N-C-C-C, prebuilt X-c2-c2-X
  713     721     722     723         9       180.000      15.16700    2     ; N-C-C-C, prebuilt X-ca-ca-X
  713     721     722     752         9       180.000      15.16700    2     ; N-C-C-H, prebuilt X-ca-ca-X
  713     721     726     725         9       180.000      15.16700    2     ; N-C-C-C, prebuilt X-ca-ca-X
  713     721     726     754         9       180.000      15.16700    2     ; N-C-C-H, prebuilt X-ca-ca-X
  714     712     713     715         9       180.000       2.61500    2     ; N-C-N-C, prebuilt X-c2-na-X
  714     712     713     721         9       180.000       2.61500    2     ; N-C-N-C, prebuilt X-c2-na-X
  714     716     715     755         9       180.000      27.82360    2     ; N-C-C-H, prebuilt X-c2-c2-X
  714     716     727     728         9         0.000       0.00000    2     ; N-C-C-F, prebuilt X-c2-c3-X
  714     716     727     729         9         0.000       0.00000    2     ; N-C-C-F, prebuilt X-c2-c3-X
  714     716     727     730         9         0.000       0.00000    2     ; N-C-C-F, prebuilt X-c2-c3-X
  715     713     721     722         9       180.000       1.25520    2     ; C-N-C-C, prebuilt X-ca-na-X
  715     713     721     726         9       180.000       1.25520    2     ; C-N-C-C, prebuilt X-ca-na-X
  715     716     714     717         9       180.000       2.61500    2     ; C-C-N-C, prebuilt X-c2-na-X
  715     716     727     728         9         0.000       0.00000    2     ; C-C-C-F, prebuilt X-c2-c3-X
  715     716     727     729         9         0.000       0.00000    2     ; C-C-C-F, prebuilt X-c2-c3-X
  715     716     727     730         9         0.000       0.00000    2     ; C-C-C-F, prebuilt X-c2-c3-X
  716     714     717     718         9         0.000       0.00000    2     ; C-N-C-H, prebuilt X-c3-na-X
  716     714     717     719         9         0.000       0.00000    2     ; C-N-C-H, prebuilt X-c3-na-X
  716     714     717     720         9         0.000       0.00000    2     ; C-N-C-H, prebuilt X-c3-na-X
  716     715     713     721         9       180.000       2.61500    2     ; C-C-N-C, prebuilt X-c2-na-X
  717     714     716     727         9       180.000       2.61500    2     ; C-N-C-C, prebuilt X-c2-na-X
  721     713     715     755         9       180.000       2.61500    2     ; C-N-C-H, prebuilt X-c2-na-X
  721     722     723     724         9       180.000      15.16700    2     ; C-C-C-C, prebuilt X-ca-ca-X
  721     722     723     751         9       180.000      15.16700    2     ; C-C-C-H, prebuilt X-ca-ca-X
  721     726     725     724         9       180.000      15.16700    2     ; C-C-C-C, prebuilt X-ca-ca-X
  721     726     725     753         9       180.000      15.16700    2     ; C-C-C-H, prebuilt X-ca-ca-X
  722     721     726     725         9       180.000      15.16700    2     ; C-C-C-C, prebuilt X-ca-ca-X
  722     721     726     754         9       180.000      15.16700    2     ; C-C-C-H, prebuilt X-ca-ca-X
  722     723     724     725         9       180.000      15.16700    2     ; C-C-C-C, prebuilt X-ca-ca-X
  723     722     721     726         9       180.000      15.16700    2     ; C-C-C-C, prebuilt X-ca-ca-X
  723     724     725     726         9       180.000      15.16700    2     ; C-C-C-C, prebuilt X-ca-ca-X
  723     724     725     753         9       180.000      15.16700    2     ; C-C-C-H, prebuilt X-ca-ca-X
  724     723     722     752         9       180.000      15.16700    2     ; C-C-C-H, prebuilt X-ca-ca-X
  724     725     726     754         9       180.000      15.16700    2     ; C-C-C-H, prebuilt X-ca-ca-X
  725     724     723     751         9       180.000      15.16700    2     ; C-C-C-H, prebuilt X-ca-ca-X
  726     721     722     752         9       180.000      15.16700    2     ; C-C-C-H, prebuilt X-ca-ca-X
  727     716     715     755         9       180.000      27.82360    2     ; C-C-C-H, prebuilt X-c2-c2-X
  731     732     667     758         9       180.000       2.61500    2     ; C-C-N-C, prebuilt X-c2-na-X
  731     732     733     734         9         0.000       0.00000    2     ; C-C-C-F, prebuilt X-c2-c3-X
  731     732     733     735         9         0.000       0.00000    2     ; C-C-C-F, prebuilt X-c2-c3-X
  731     732     733     757         9         0.000       0.00000    2     ; C-C-C-F, prebuilt X-c2-c3-X
  732     667     758     759         9         0.000       0.00000    2     ; C-N-C-H, prebuilt X-c3-na-X
  732     667     758     760         9         0.000       0.00000    2     ; C-N-C-H, prebuilt X-c3-na-X
  732     667     758     761         9         0.000       0.00000    2     ; C-N-C-H, prebuilt X-c3-na-X
  733     732     667     758         9       180.000       2.61500    2     ; C-C-N-C, prebuilt X-c2-na-X
  733     732     731     736         9       180.000      27.82360    2     ; C-C-C-H, prebuilt X-c2-c2-X
  737     671     672     738         9       180.000      15.16700    2     ; H-C-C-H, prebuilt X-ca-ca-X
  739     675     674     740         9       180.000      15.16700    2     ; H-C-C-H, prebuilt X-ca-ca-X
  742     684     685     743         9       180.000      15.16700    2     ; H-C-C-H, prebuilt X-ca-ca-X
  744     689     691     746         9       180.000      15.16700    2     ; H-C-C-H, prebuilt X-ca-ca-X
  747     702     703     819         9       180.000      10.46000    2     ; O-C-N-C, prebuilt X-c-n-X
  748     707     709     749         9       180.000      15.16700    2     ; H-C-C-H, prebuilt X-ca-ca-X
  750     708     710     756         9       180.000      15.16700    2     ; H-C-C-H, prebuilt X-ca-ca-X
  751     723     722     752         9       180.000      15.16700    2     ; H-C-C-H, prebuilt X-ca-ca-X
  753     725     726     754         9       180.000      15.16700    2     ; H-C-C-H, prebuilt X-ca-ca-X
  762     764     763     765         9       180.000       2.61500    2     ; N-C-N-C, prebuilt X-c2-na-X
  762     764     763     826         9       180.000       2.61500    2     ; N-C-N-C, prebuilt X-c2-na-X
  762     764     801     802         9       180.000       2.92880    2     ; N-C-C-C, prebuilt X-c2-ca-X
  762     764     801     803         9       180.000       2.92880    2     ; N-C-C-C, prebuilt X-c2-ca-X
  762     827     826     763         9       180.000      27.82360    2     ; N-C-C-N, prebuilt X-c2-c2-X
  762     827     826     831         9       180.000      27.82360    2     ; N-C-C-H, prebuilt X-c2-c2-X
  762     827     828     829         9         0.000       0.00000    2     ; N-C-C-F, prebuilt X-c2-c3-X
  762     827     828     830         9         0.000       0.00000    2     ; N-C-C-F, prebuilt X-c2-c3-X
  762     827     828     852         9         0.000       0.00000    2     ; N-C-C-F, prebuilt X-c2-c3-X
  763     764     762     827         9       180.000       2.61500    2     ; N-C-N-C, prebuilt X-c2-na-X
  763     764     762     853         9       180.000       2.61500    2     ; N-C-N-C, prebuilt X-c2-na-X
  763     764     801     802         9       180.000       2.92880    2     ; N-C-C-C, prebuilt X-c2-ca-X
  763     764     801     803         9       180.000       2.92880    2     ; N-C-C-C, prebuilt X-c2-ca-X
  763     765     766     767         9       180.000      15.16700    2     ; N-C-C-C, prebuilt X-ca-ca-X
  763     765     766     832         9       180.000      15.16700    2     ; N-C-C-H, prebuilt X-ca-ca-X
  763     765     770     769         9       180.000      15.16700    2     ; N-C-C-C, prebuilt X-ca-ca-X
  763     765     770     834         9       180.000      15.16700    2     ; N-C-C-H, prebuilt X-ca-ca-X
  763     826     827     828         9       180.000      27.82360    2     ; N-C-C-C, prebuilt X-c2-c2-X
  764     762     827     826         9       180.000       2.61500    2     ; C-N-C-C, prebuilt X-c2-na-X
  764     762     827     828         9       180.000       2.61500    2     ; C-N-C-C, prebuilt X-c2-na-X
  764     762     853     854         9         0.000       0.00000    2     ; C-N-C-H, prebuilt X-c3-na-X
  764     762     853     855         9         0.000       0.00000    2     ; C-N-C-H, prebuilt X-c3-na-X
  764     762     853     856         9         0.000       0.00000    2     ; C-N-C-H, prebuilt X-c3-na-X
  764     763     765     766         9       180.000       1.25520    2     ; C-N-C-C, prebuilt X-ca-na-X
  764     763     765     770         9       180.000       1.25520    2     ; C-N-C-C, prebuilt X-ca-na-X
  764     763     826     827         9       180.000       2.61500    2     ; C-N-C-C, prebuilt X-c2-na-X
  764     763     826     831         9       180.000       2.61500    2     ; C-N-C-H, prebuilt X-c2-na-X
  764     801     802     804         9       180.000      15.16700    2     ; C-C-C-C, prebuilt X-ca-ca-X
  764     801     802     843         9       180.000      15.16700    2     ; C-C-C-H, prebuilt X-ca-ca-X
  764     801     803     805         9       180.000      15.16700    2     ; C-C-C-C, prebuilt X-ca-ca-X
  764     801     803     845         9       180.000      15.16700    2     ; C-C-C-H, prebuilt X-ca-ca-X
  765     763     764     801         9       180.000       2.61500    2     ; C-N-C-C, prebuilt X-c2-na-X
  765     763     826     827         9       180.000       2.61500    2     ; C-N-C-C, prebuilt X-c2-na-X
  765     763     826     831         9       180.000       2.61500    2     ; C-N-C-H, prebuilt X-c2-na-X
  765     766     767     768         9       180.000      15.16700    2     ; C-C-C-C, prebuilt X-ca-ca-X
  765     766     767     833         9       180.000      15.16700    2     ; C-C-C-H, prebuilt X-ca-ca-X
  765     770     769     768         9       180.000      15.16700    2     ; C-C-C-C, prebuilt X-ca-ca-X
  765     770     769     835         9       180.000      15.16700    2     ; C-C-C-H, prebuilt X-ca-ca-X
  766     765     763     826         9       180.000       1.25520    2     ; C-C-N-C, prebuilt X-ca-na-X
  766     765     770     769         9       180.000      15.16700    2     ; C-C-C-C, prebuilt X-ca-ca-X
  766     765     770     834         9       180.000      15.16700    2     ; C-C-C-H, prebuilt X-ca-ca-X
  766     767     768     769         9       180.000      15.16700    2     ; C-C-C-C, prebuilt X-ca-ca-X
  766     767     768     771         9       180.000      15.16700    2     ; C-C-C-N, prebuilt X-ca-ca-X
  767     766     765     770         9       180.000      15.16700    2     ; C-C-C-C, prebuilt X-ca-ca-X
  767     768     769     770         9       180.000      15.16700    2     ; C-C-C-C, prebuilt X-ca-ca-X
  767     768     769     835         9       180.000      15.16700    2     ; C-C-C-H, prebuilt X-ca-ca-X
  767     768     771     772         9       180.000       1.88280    2     ; C-C-N-C, prebuilt X-ca-n-X
  767     768     771     775         9       180.000       1.88280    2     ; C-C-N-C, prebuilt X-ca-n-X
  768     767     766     832         9       180.000      15.16700    2     ; C-C-C-H, prebuilt X-ca-ca-X
  768     769     770     834         9       180.000      15.16700    2     ; C-C-C-H, prebuilt X-ca-ca-X
  768     771     772     773         9       180.000      10.46000    2     ; C-N-C-C, prebuilt X-c-n-X
  768     771     772     796         9       180.000      10.46000    2     ; C-N-C-O, prebuilt X-c-n-X
  768     771     775     774         9       180.000      10.46000    2     ; C-N-C-C, prebuilt X-c-n-X
  768     771     775     776         9       180.000      10.46000    2     ; C-N-C-O, prebuilt X-c-n-X
  769     768     767     833         9       180.000      15.16700    2     ; C-C-C-H, prebuilt X-ca-ca-X
  769     768     771     772         9       180.000       1.88280    2     ; C-C-N-C, prebuilt X-ca-n-X
  769     768     771     775         9       180.000       1.88280    2     ; C-C-N-C, prebuilt X-ca-n-X
  770     765     763     826         9       180.000       1.25520    2     ; C-C-N-C, prebuilt X-ca-na-X
  770     765     766     832         9       180.000      15.16700    2     ; C-C-C-H, prebuilt X-ca-ca-X
  770     769     768     771         9       180.000      15.16700    2     ; C-C-C-N, prebuilt X-ca-ca-X
  771     768     767     833         9       180.000      15.16700    2     ; N-C-C-H, prebuilt X-ca-ca-X
  771     768     769     835         9       180.000      15.16700    2     ; N-C-C-H, prebuilt X-ca-ca-X
  771     772     773     774         9       180.000       4.18400    2     ; N-C-C-C, prebuilt X-c-ca-X
  771     772     773     777         9       180.000       4.18400    2     ; N-C-C-C, prebuilt X-c-ca-X
  771     775     774     773         9       180.000       4.18400    2     ; N-C-C-C, prebuilt X-c-ca-X
  771     775     774     780         9       180.000       4.18400    2     ; N-C-C-C, prebuilt X-c-ca-X
  772     771     775     774         9       180.000      10.46000    2     ; C-N-C-C, prebuilt X-c-n-X
  772     771     775     776         9       180.000      10.46000    2     ; C-N-C-O, prebuilt X-c-n-X
  772     773     774     775         9       180.000      15.16700    2     ; C-C-C-C, prebuilt X-ca-ca-X
  772     773     774     780         9       180.000      15.16700    2     ; C-C-C-C, prebuilt X-ca-ca-X
  772     773     777     778         9       180.000      15.16700    2     ; C-C-C-C, prebuilt X-ca-ca-X
  772     773     777     836         9       180.000      15.16700    2     ; C-C-C-H, prebuilt X-ca-ca-X
  773     772     771     775         9       180.000      10.46000    2     ; C-C-N-C, prebuilt X-c-n-X
  773     774     775     776         9       180.000       4.18400    2     ; C-C-C-O, prebuilt X-c-ca-X
  773     774     780     779         9       180.000      15.16700    2     ; C-C-C-C, prebuilt X-ca-ca-X
  773     774     780     838         9       180.000      15.16700    2     ; C-C-C-H, prebuilt X-ca-ca-X
  773     777     778     779         9       180.000      15.16700    2     ; C-C-C-C, prebuilt X-ca-ca-X
  773     777     778     787         9       180.000      15.16700    2     ; C-C-C-C, prebuilt X-ca-ca-X
  774     773     772     796         9       180.000       4.18400    2     ; C-C-C-O, prebuilt X-c-ca-X
  774     773     777     778         9       180.000      15.16700    2     ; C-C-C-C, prebuilt X-ca-ca-X
  774     773     777     836         9       180.000      15.16700    2     ; C-C-C-H, prebuilt X-ca-ca-X
  774     780     779     778         9       180.000      15.16700    2     ; C-C-C-C, prebuilt X-ca-ca-X
  774     780     779     837         9       180.000      15.16700    2     ; C-C-C-H, prebuilt X-ca-ca-X
  775     771     772     796         9       180.000      10.46000    2     ; C-N-C-O, prebuilt X-c-n-X
  775     774     773     777         9       180.000      15.16700    2     ; C-C-C-C, prebuilt X-ca-ca-X
  775     774     780     779         9       180.000      15.16700    2     ; C-C-C-C, prebuilt X-ca-ca-X
  775     774     780     838         9       180.000      15.16700    2     ; C-C-C-H, prebuilt X-ca-ca-X
  776     775     774     780         9       180.000       4.18400    2     ; O-C-C-C, prebuilt X-c-ca-X
  777     773     772     796         9       180.000       4.18400    2     ; C-C-C-O, prebuilt X-c-ca-X
  777     773     774     780         9       180.000      15.16700    2     ; C-C-C-C, prebuilt X-ca-ca-X
  777     778     779     780         9       180.000      15.16700    2     ; C-C-C-C, prebuilt X-ca-ca-X
  777     778     779     837         9       180.000      15.16700    2     ; C-C-C-H, prebuilt X-ca-ca-X
  777     778     787     781         9         0.000       0.00000    2     ; C-C-C-C, prebuilt X-c3-ca-X
  777     778     787     788         9         0.000       0.00000    2     ; C-C-C-C, prebuilt X-c3-ca-X
  777     778     787     792         9         0.000       0.00000    2     ; C-C-C-C, prebuilt X-c3-ca-X
  778     779     780     838         9       180.000      15.16700    2     ; C-C-C-H, prebuilt X-ca-ca-X
  778     787     781     782         9         0.000       0.00000    2     ; C-C-C-C, prebuilt X-c3-ca-X
  778     787     781     784         9         0.000       0.00000    2     ; C-C-C-C, prebuilt X-c3-ca-X
  778     787     788     789         9         0.000       0.65084    3     ; C-C-C-F, prebuilt X-c3-c3-X
  778     787     788     790         9         0.000       0.65084    3     ; C-C-C-F, prebuilt X-c3-c3-X
  778     787     788     791         9         0.000       0.65084    3     ; C-C-C-F, prebuilt X-c3-c3-X
  778     787     792     793         9         0.000       0.65084    3     ; C-C-C-F, prebuilt X-c3-c3-X
  778     787     792     794         9         0.000       0.65084    3     ; C-C-C-F, prebuilt X-c3-c3-X
  778     787     792     795         9         0.000       0.65084    3     ; C-C-C-F, prebuilt X-c3-c3-X
  779     778     777     836         9       180.000      15.16700    2     ; C-C-C-H, prebuilt X-ca-ca-X
  779     778     787     781         9         0.000       0.00000    2     ; C-C-C-C, prebuilt X-c3-ca-X
  779     778     787     788         9         0.000       0.00000    2     ; C-C-C-C, prebuilt X-c3-ca-X
  779     778     787     792         9         0.000       0.00000    2     ; C-C-C-C, prebuilt X-c3-ca-X
  780     779     778     787         9       180.000      15.16700    2     ; C-C-C-C, prebuilt X-ca-ca-X
  781     782     783     785         9       180.000      15.16700    2     ; C-C-C-C, prebuilt X-ca-ca-X
  781     782     783     797         9       180.000      15.16700    2     ; C-C-C-C, prebuilt X-ca-ca-X
  781     784     786     785         9       180.000      15.16700    2     ; C-C-C-C, prebuilt X-ca-ca-X
  781     784     786     841         9       180.000      15.16700    2     ; C-C-C-H, prebuilt X-ca-ca-X
  781     787     788     789         9         0.000       0.65084    3     ; C-C-C-F, prebuilt X-c3-c3-X
  781     787     788     790         9         0.000       0.65084    3     ; C-C-C-F, prebuilt X-c3-c3-X
  781     787     788     791         9         0.000       0.65084    3     ; C-C-C-F, prebuilt X-c3-c3-X
  781     787     792     793         9         0.000       0.65084    3     ; C-C-C-F, prebuilt X-c3-c3-X
  781     787     792     794         9         0.000       0.65084    3     ; C-C-C-F, prebuilt X-c3-c3-X
  781     787     792     795         9         0.000       0.65084    3     ; C-C-C-F, prebuilt X-c3-c3-X
  782     781     784     786         9       180.000      15.16700    2     ; C-C-C-C, prebuilt X-ca-ca-X
  782     781     784     839         9       180.000      15.16700    2     ; C-C-C-H, prebuilt X-ca-ca-X
  782     781     787     788         9         0.000       0.00000    2     ; C-C-C-C, prebuilt X-c3-ca-X
  782     781     787     792         9         0.000       0.00000    2     ; C-C-C-C, prebuilt X-c3-ca-X
  782     783     785     786         9       180.000      15.16700    2     ; C-C-C-C, prebuilt X-ca-ca-X
  782     783     785     799         9       180.000      15.16700    2     ; C-C-C-C, prebuilt X-ca-ca-X
  782     783     797     798         9       180.000       4.18400    2     ; C-C-C-N, prebuilt X-c-ca-X
  782     783     797     842         9       180.000       4.18400    2     ; C-C-C-O, prebuilt X-c-ca-X
  783     782     781     784         9       180.000      15.16700    2     ; C-C-C-C, prebuilt X-ca-ca-X
  783     782     781     787         9       180.000      15.16700    2     ; C-C-C-C, prebuilt X-ca-ca-X
  783     785     786     784         9       180.000      15.16700    2     ; C-C-C-C, prebuilt X-ca-ca-X
  783     785     786     841         9       180.000      15.16700    2     ; C-C-C-H, prebuilt X-ca-ca-X
  783     785     799     798         9       180.000       4.18400    2     ; C-C-C-N, prebuilt X-c-ca-X
  783     785     799     800         9       180.000       4.18400    2     ; C-C-C-O, prebuilt X-c-ca-X
  783     797     798     799         9       180.000      10.46000    2     ; C-C-N-C, prebuilt X-c-n-X
  783     797     798     914         9       180.000      10.46000    2     ; C-C-N-C, prebuilt X-c-n-X
  784     781     782     840         9       180.000      15.16700    2     ; C-C-C-H, prebuilt X-ca-ca-X
  784     781     787     788         9         0.000       0.00000    2     ; C-C-C-C, prebuilt X-c3-ca-X
  784     781     787     792         9         0.000       0.00000    2     ; C-C-C-C, prebuilt X-c3-ca-X
  784     786     785     799         9       180.000      15.16700    2     ; C-C-C-C, prebuilt X-ca-ca-X
  785     783     782     840         9       180.000      15.16700    2     ; C-C-C-H, prebuilt X-ca-ca-X
  785     783     797     798         9       180.000       4.18400    2     ; C-C-C-N, prebuilt X-c-ca-X
  785     783     797     842         9       180.000       4.18400    2     ; C-C-C-O, prebuilt X-c-ca-X
  785     786     784     839         9       180.000      15.16700    2     ; C-C-C-H, prebuilt X-ca-ca-X
  785     799     798     797         9       180.000      10.46000    2     ; C-C-N-C, prebuilt X-c-n-X
  785     799     798     914         9       180.000      10.46000    2     ; C-C-N-C, prebuilt X-c-n-X
  786     784     781     787         9       180.000      15.16700    2     ; C-C-C-C, prebuilt X-ca-ca-X
  786     785     783     797         9       180.000      15.16700    2     ; C-C-C-C, prebuilt X-ca-ca-X
  786     785     799     798         9       180.000       4.18400    2     ; C-C-C-N, prebuilt X-c-ca-X
  786     785     799     800         9       180.000       4.18400    2     ; C-C-C-O, prebuilt X-c-ca-X
  787     778     777     836         9       180.000      15.16700    2     ; C-C-C-H, prebuilt X-ca-ca-X
  787     778     779     837         9       180.000      15.16700    2     ; C-C-C-H, prebuilt X-ca-ca-X
  787     781     782     840         9       180.000      15.16700    2     ; C-C-C-H, prebuilt X-ca-ca-X
  787     781     784     839         9       180.000      15.16700    2     ; C-C-C-H, prebuilt X-ca-ca-X
  788     787     792     793         9         0.000       0.65084    3     ; C-C-C-F, prebuilt X-c3-c3-X
  788     787     792     794         9         0.000       0.65084    3     ; C-C-C-F, prebuilt X-c3-c3-X
  788     787     792     795         9         0.000       0.65084    3     ; C-C-C-F, prebuilt X-c3-c3-X
  789     788     787     792         9         0.000       0.65084    3     ; F-C-C-C, prebuilt X-c3-c3-X
  790     788     787     792         9         0.000       0.65084    3     ; F-C-C-C, prebuilt X-c3-c3-X
  791     788     787     792         9         0.000       0.65084    3     ; F-C-C-C, prebuilt X-c3-c3-X
  797     783     782     840         9       180.000      15.16700    2     ; C-C-C-H, prebuilt X-ca-ca-X
  797     783     785     799         9       180.000      15.16700    2     ; C-C-C-C, prebuilt X-ca-ca-X
  797     798     799     800         9       180.000      10.46000    2     ; C-N-C-O, prebuilt X-c-n-X
  797     798     914     913         9       180.000       1.88280    2     ; C-N-C-C, prebuilt X-ca-n-X
  797     798     914     915         9       180.000       1.88280    2     ; C-N-C-C, prebuilt X-ca-n-X
  798     914     913     912         9       180.000      15.16700    2     ; N-C-C-C, prebuilt X-ca-ca-X
  798     914     913     941         9       180.000      15.16700    2     ; N-C-C-H, prebuilt X-ca-ca-X
  798     914     915     916         9       180.000      15.16700    2     ; N-C-C-C, prebuilt X-ca-ca-X
  798     914     915     943         9       180.000      15.16700    2     ; N-C-C-H, prebuilt X-ca-ca-X
  799     785     786     841         9       180.000      15.16700    2     ; C-C-C-H, prebuilt X-ca-ca-X
  799     798     797     842         9       180.000      10.46000    2     ; C-N-C-O, prebuilt X-c-n-X
  799     798     914     913         9       180.000       1.88280    2     ; C-N-C-C, prebuilt X-ca-n-X
  799     798     914     915         9       180.000       1.88280    2     ; C-N-C-C, prebuilt X-ca-n-X
  800     799     798     914         9       180.000      10.46000    2     ; O-C-N-C, prebuilt X-c-n-X
  801     764     762     827         9       180.000       2.61500    2     ; C-C-N-C, prebuilt X-c2-na-X
  801     764     762     853         9       180.000       2.61500    2     ; C-C-N-C, prebuilt X-c2-na-X
  801     764     763     826         9       180.000       2.61500    2     ; C-C-N-C, prebuilt X-c2-na-X
  801     802     804     806         9       180.000      15.16700    2     ; C-C-C-C, prebuilt X-ca-ca-X
  801     802     804     844         9       180.000      15.16700    2     ; C-C-C-H, prebuilt X-ca-ca-X
  801     803     805     806         9       180.000      15.16700    2     ; C-C-C-C, prebuilt X-ca-ca-X
  801     803     805     851         9       180.000      15.16700    2     ; C-C-C-H, prebuilt X-ca-ca-X
  802     801     803     805         9       180.000      15.16700    2     ; C-C-C-C, prebuilt X-ca-ca-X
  802     801     803     845         9       180.000      15.16700    2     ; C-C-C-H, prebuilt X-ca-ca-X
  802     804     806     805         9       180.000      15.16700    2     ; C-C-C-C, prebuilt X-ca-ca-X
  802     804     806     807         9       180.000      15.16700    2     ; C-C-C-C, prebuilt X-ca-ca-X
  803     801     802     804         9       180.000      15.16700    2     ; C-C-C-C, prebuilt X-ca-ca-X
  803     801     802     843         9       180.000      15.16700    2     ; C-C-C-H, prebuilt X-ca-ca-X
  803     805     806     804         9       180.000      15.16700    2     ; C-C-C-C, prebuilt X-ca-ca-X
  803     805     806     807         9       180.000      15.16700    2     ; C-C-C-C, prebuilt X-ca-ca-X
  804     806     805     851         9       180.000      15.16700    2     ; C-C-C-H, prebuilt X-ca-ca-X
  804     806     807     808         9       180.000       2.92880    2     ; C-C-C-N, prebuilt X-c2-ca-X
  804     806     807     809         9       180.000       2.92880    2     ; C-C-C-N, prebuilt X-c2-ca-X
  805     806     804     844         9       180.000      15.16700    2     ; C-C-C-H, prebuilt X-ca-ca-X
  805     806     807     808         9       180.000       2.92880    2     ; C-C-C-N, prebuilt X-c2-ca-X
  805     806     807     809         9       180.000       2.92880    2     ; C-C-C-N, prebuilt X-c2-ca-X
  806     804     802     843         9       180.000      15.16700    2     ; C-C-C-H, prebuilt X-ca-ca-X
  806     805     803     845         9       180.000      15.16700    2     ; C-C-C-H, prebuilt X-ca-ca-X
  806     807     808     810         9       180.000       2.61500    2     ; C-C-N-C, prebuilt X-c2-na-X
  806     807     808     816         9       180.000       2.61500    2     ; C-C-N-C, prebuilt X-c2-na-X
  806     807     809     811         9       180.000       2.61500    2     ; C-C-N-C, prebuilt X-c2-na-X
  806     807     809     812         9       180.000       2.61500    2     ; C-C-N-C, prebuilt X-c2-na-X
  807     806     804     844         9       180.000      15.16700    2     ; C-C-C-H, prebuilt X-ca-ca-X
  807     806     805     851         9       180.000      15.16700    2     ; C-C-C-H, prebuilt X-ca-ca-X
  807     808     810     811         9       180.000       2.61500    2     ; C-N-C-C, prebuilt X-c2-na-X
  807     808     810     850         9       180.000       2.61500    2     ; C-N-C-H, prebuilt X-c2-na-X
  807     808     816     817         9       180.000       1.25520    2     ; C-N-C-C, prebuilt X-ca-na-X
  807     808     816     821         9       180.000       1.25520    2     ; C-N-C-C, prebuilt X-ca-na-X
  807     809     811     810         9       180.000       2.61500    2     ; C-N-C-C, prebuilt X-c2-na-X
  807     809     811     822         9       180.000       2.61500    2     ; C-N-C-C, prebuilt X-c2-na-X
  807     809     812     813         9         0.000       0.00000    2     ; C-N-C-H, prebuilt X-c3-na-X
  807     809     812     814         9         0.000       0.00000    2     ; C-N-C-H, prebuilt X-c3-na-X
  807     809     812     815         9         0.000       0.00000    2     ; C-N-C-H, prebuilt X-c3-na-X
  808     807     809     811         9       180.000       2.61500    2     ; N-C-N-C, prebuilt X-c2-na-X
  808     807     809     812         9       180.000       2.61500    2     ; N-C-N-C, prebuilt X-c2-na-X
  808     810     811     809         9       180.000      27.82360    2     ; N-C-C-N, prebuilt X-c2-c2-X
  808     810     811     822         9       180.000      27.82360    2     ; N-C-C-C, prebuilt X-c2-c2-X
  808     816     817     818         9       180.000      15.16700    2     ; N-C-C-C, prebuilt X-ca-ca-X
  808     816     817     847         9       180.000      15.16700    2     ; N-C-C-H, prebuilt X-ca-ca-X
  808     816     821     820         9       180.000      15.16700    2     ; N-C-C-C, prebuilt X-ca-ca-X
  808     816     821     849         9       180.000      15.16700    2     ; N-C-C-H, prebuilt X-ca-ca-X
  809     807     808     810         9       180.000       2.61500    2     ; N-C-N-C, prebuilt X-c2-na-X
  809     807     808     816         9       180.000       2.61500    2     ; N-C-N-C, prebuilt X-c2-na-X
  809     811     810     850         9       180.000      27.82360    2     ; N-C-C-H, prebuilt X-c2-c2-X
  809     811     822     823         9         0.000       0.00000    2     ; N-C-C-F, prebuilt X-c2-c3-X
  809     811     822     824         9         0.000       0.00000    2     ; N-C-C-F, prebuilt X-c2-c3-X
  809     811     822     825         9         0.000       0.00000    2     ; N-C-C-F, prebuilt X-c2-c3-X
  810     808     816     817         9       180.000       1.25520    2     ; C-N-C-C, prebuilt X-ca-na-X
  810     808     816     821         9       180.000       1.25520    2     ; C-N-C-C, prebuilt X-ca-na-X
  810     811     809     812         9       180.000       2.61500    2     ; C-C-N-C, prebuilt X-c2-na-X
  810     811     822     823         9         0.000       0.00000    2     ; C-C-C-F, prebuilt X-c2-c3-X
  810     811     822     824         9         0.000       0.00000    2     ; C-C-C-F, prebuilt X-c2-c3-X
  810     811     822     825         9         0.000       0.00000    2     ; C-C-C-F, prebuilt X-c2-c3-X
  811     809     812     813         9         0.000       0.00000    2     ; C-N-C-H, prebuilt X-c3-na-X
  811     809     812     814         9         0.000       0.00000    2     ; C-N-C-H, prebuilt X-c3-na-X
  811     809     812     815         9         0.000       0.00000    2     ; C-N-C-H, prebuilt X-c3-na-X
  811     810     808     816         9       180.000       2.61500    2     ; C-C-N-C, prebuilt X-c2-na-X
  812     809     811     822         9       180.000       2.61500    2     ; C-N-C-C, prebuilt X-c2-na-X
  816     808     810     850         9       180.000       2.61500    2     ; C-N-C-H, prebuilt X-c2-na-X
  816     817     818     819         9       180.000      15.16700    2     ; C-C-C-C, prebuilt X-ca-ca-X
  816     817     818     846         9       180.000      15.16700    2     ; C-C-C-H, prebuilt X-ca-ca-X
  816     821     820     819         9       180.000      15.16700    2     ; C-C-C-C, prebuilt X-ca-ca-X
  816     821     820     848         9       180.000      15.16700    2     ; C-C-C-H, prebuilt X-ca-ca-X
  817     816     821     820         9       180.000      15.16700    2     ; C-C-C-C, prebuilt X-ca-ca-X
  817     816     821     849         9       180.000      15.16700    2     ; C-C-C-H, prebuilt X-ca-ca-X
  817     818     819     820         9       180.000      15.16700    2     ; C-C-C-C, prebuilt X-ca-ca-X
  818     817     816     821         9       180.000      15.16700    2     ; C-C-C-C, prebuilt X-ca-ca-X
  818     819     820     821         9       180.000      15.16700    2     ; C-C-C-C, prebuilt X-ca-ca-X
  818     819     820     848         9       180.000      15.16700    2     ; C-C-C-H, prebuilt X-ca-ca-X
  819     818     817     847         9       180.000      15.16700    2     ; C-C-C-H, prebuilt X-ca-ca-X
  819     820     821     849         9       180.000      15.16700    2     ; C-C-C-H, prebuilt X-ca-ca-X
  820     819     818     846         9       180.000      15.16700    2     ; C-C-C-H, prebuilt X-ca-ca-X
  821     816     817     847         9       180.000      15.16700    2     ; C-C-C-H, prebuilt X-ca-ca-X
  822     811     810     850         9       180.000      27.82360    2     ; C-C-C-H, prebuilt X-c2-c2-X
  826     827     762     853         9       180.000       2.61500    2     ; C-C-N-C, prebuilt X-c2-na-X
  826     827     828     829         9         0.000       0.00000    2     ; C-C-C-F, prebuilt X-c2-c3-X
  826     827     828     830         9         0.000       0.00000    2     ; C-C-C-F, prebuilt X-c2-c3-X
  826     827     828     852         9         0.000       0.00000    2     ; C-C-C-F, prebuilt X-c2-c3-X
  827     762     853     854         9         0.000       0.00000    2     ; C-N-C-H, prebuilt X-c3-na-X
  827     762     853     855         9         0.000       0.00000    2     ; C-N-C-H, prebuilt X-c3-na-X
  827     762     853     856         9         0.000       0.00000    2     ; C-N-C-H, prebuilt X-c3-na-X
  828     827     762     853         9       180.000       2.61500    2     ; C-C-N-C, prebuilt X-c2-na-X
  828     827     826     831         9       180.000      27.82360    2     ; C-C-C-H, prebuilt X-c2-c2-X
  832     766     767     833         9       180.000      15.16700    2     ; H-C-C-H, prebuilt X-ca-ca-X
  834     770     769     835         9       180.000      15.16700    2     ; H-C-C-H, prebuilt X-ca-ca-X
  837     779     780     838         9       180.000      15.16700    2     ; H-C-C-H, prebuilt X-ca-ca-X
  839     784     786     841         9       180.000      15.16700    2     ; H-C-C-H, prebuilt X-ca-ca-X
  842     797     798     914         9       180.000      10.46000    2     ; O-C-N-C, prebuilt X-c-n-X
  843     802     804     844         9       180.000      15.16700    2     ; H-C-C-H, prebuilt X-ca-ca-X
  845     803     805     851         9       180.000      15.16700    2     ; H-C-C-H, prebuilt X-ca-ca-X
  846     818     817     847         9       180.000      15.16700    2     ; H-C-C-H, prebuilt X-ca-ca-X
  848     820     821     849         9       180.000      15.16700    2     ; H-C-C-H, prebuilt X-ca-ca-X
  857     859     858     860         9       180.000       2.61500    2     ; N-C-N-C, prebuilt X-c2-na-X
  857     859     858     921         9       180.000       2.61500    2     ; N-C-N-C, prebuilt X-c2-na-X
  857     859     896     897         9       180.000       2.92880    2     ; N-C-C-C, prebuilt X-c2-ca-X
  857     859     896     898         9       180.000       2.92880    2     ; N-C-C-C, prebuilt X-c2-ca-X
  857     922     921     858         9       180.000      27.82360    2     ; N-C-C-N, prebuilt X-c2-c2-X
  857     922     921     926         9       180.000      27.82360    2     ; N-C-C-H, prebuilt X-c2-c2-X
  857     922     923     924         9         0.000       0.00000    2     ; N-C-C-F, prebuilt X-c2-c3-X
  857     922     923     925         9         0.000       0.00000    2     ; N-C-C-F, prebuilt X-c2-c3-X
  857     922     923     947         9         0.000       0.00000    2     ; N-C-C-F, prebuilt X-c2-c3-X
  858     859     857     922         9       180.000       2.61500    2     ; N-C-N-C, prebuilt X-c2-na-X
  858     859     857     948         9       180.000       2.61500    2     ; N-C-N-C, prebuilt X-c2-na-X
  858     859     896     897         9       180.000       2.92880    2     ; N-C-C-C, prebuilt X-c2-ca-X
  858     859     896     898         9       180.000       2.92880    2     ; N-C-C-C, prebuilt X-c2-ca-X
  858     860     861     862         9       180.000      15.16700    2     ; N-C-C-C, prebuilt X-ca-ca-X
  858     860     861     927         9       180.000      15.16700    2     ; N-C-C-H, prebuilt X-ca-ca-X
  858     860     865     864         9       180.000      15.16700    2     ; N-C-C-C, prebuilt X-ca-ca-X
  858     860     865     929         9       180.000      15.16700    2     ; N-C-C-H, prebuilt X-ca-ca-X
  858     921     922     923         9       180.000      27.82360    2     ; N-C-C-C, prebuilt X-c2-c2-X
  859     857     922     921         9       180.000       2.61500    2     ; C-N-C-C, prebuilt X-c2-na-X
  859     857     922     923         9       180.000       2.61500    2     ; C-N-C-C, prebuilt X-c2-na-X
  859     857     948     949         9         0.000       0.00000    2     ; C-N-C-H, prebuilt X-c3-na-X
  859     857     948     950         9         0.000       0.00000    2     ; C-N-C-H, prebuilt X-c3-na-X
  859     857     948     951         9         0.000       0.00000    2     ; C-N-C-H, prebuilt X-c3-na-X
  859     858     860     861         9       180.000       1.25520    2     ; C-N-C-C, prebuilt X-ca-na-X
  859     858     860     865         9       180.000       1.25520    2     ; C-N-C-C, prebuilt X-ca-na-X
  859     858     921     922         9       180.000       2.61500    2     ; C-N-C-C, prebuilt X-c2-na-X
  859     858     921     926         9       180.000       2.61500    2     ; C-N-C-H, prebuilt X-c2-na-X
  859     896     897     899         9       180.000      15.16700    2     ; C-C-C-C, prebuilt X-ca-ca-X
  859     896     897     938         9       180.000      15.16700    2     ; C-C-C-H, prebuilt X-ca-ca-X
  859     896     898     900         9       180.000      15.16700    2     ; C-C-C-C, prebuilt X-ca-ca-X
  859     896     898     940         9       180.000      15.16700    2     ; C-C-C-H, prebuilt X-ca-ca-X
  860     858     859     896         9       180.000       2.61500    2     ; C-N-C-C, prebuilt X-c2-na-X
  860     858     921     922         9       180.000       2.61500    2     ; C-N-C-C, prebuilt X-c2-na-X
  860     858     921     926         9       180.000       2.61500    2     ; C-N-C-H, prebuilt X-c2-na-X
  860     861     862     863         9       180.000      15.16700    2     ; C-C-C-C, prebuilt X-ca-ca-X
  860     861     862     928         9       180.000      15.16700    2     ; C-C-C-H, prebuilt X-ca-ca-X
  860     865     864     863         9       180.000      15.16700    2     ; C-C-C-C, prebuilt X-ca-ca-X
  860     865     864     930         9       180.000      15.16700    2     ; C-C-C-H, prebuilt X-ca-ca-X
  861     860     858     921         9       180.000       1.25520    2     ; C-C-N-C, prebuilt X-ca-na-X
  861     860     865     864         9       180.000      15.16700    2     ; C-C-C-C, prebuilt X-ca-ca-X
  861     860     865     929         9       180.000      15.16700    2     ; C-C-C-H, prebuilt X-ca-ca-X
  861     862     863     864         9       180.000      15.16700    2     ; C-C-C-C, prebuilt X-ca-ca-X
  861     862     863     866         9       180.000      15.16700    2     ; C-C-C-N, prebuilt X-ca-ca-X
  862     861     860     865         9       180.000      15.16700    2     ; C-C-C-C, prebuilt X-ca-ca-X
  862     863     864     865         9       180.000      15.16700    2     ; C-C-C-C, prebuilt X-ca-ca-X
  862     863     864     930         9       180.000      15.16700    2     ; C-C-C-H, prebuilt X-ca-ca-X
  862     863     866     867         9       180.000       1.88280    2     ; C-C-N-C, prebuilt X-ca-n-X
  862     863     866     870         9       180.000       1.88280    2     ; C-C-N-C, prebuilt X-ca-n-X
  863     862     861     927         9       180.000      15.16700    2     ; C-C-C-H, prebuilt X-ca-ca-X
  863     864     865     929         9       180.000      15.16700    2     ; C-C-C-H, prebuilt X-ca-ca-X
  863     866     867     868         9       180.000      10.46000    2     ; C-N-C-C, prebuilt X-c-n-X
  863     866     867     891         9       180.000      10.46000    2     ; C-N-C-O, prebuilt X-c-n-X
  863     866     870     869         9       180.000      10.46000    2     ; C-N-C-C, prebuilt X-c-n-X
  863     866     870     871         9       180.000      10.46000    2     ; C-N-C-O, prebuilt X-c-n-X
  864     863     862     928         9       180.000      15.16700    2     ; C-C-C-H, prebuilt X-ca-ca-X
  864     863     866     867         9       180.000       1.88280    2     ; C-C-N-C, prebuilt X-ca-n-X
  864     863     866     870         9       180.000       1.88280    2     ; C-C-N-C, prebuilt X-ca-n-X
  865     860     858     921         9       180.000       1.25520    2     ; C-C-N-C, prebuilt X-ca-na-X
  865     860     861     927         9       180.000      15.16700    2     ; C-C-C-H, prebuilt X-ca-ca-X
  865     864     863     866         9       180.000      15.16700    2     ; C-C-C-N, prebuilt X-ca-ca-X
  866     863     862     928         9       180.000      15.16700    2     ; N-C-C-H, prebuilt X-ca-ca-X
  866     863     864     930         9       180.000      15.16700    2     ; N-C-C-H, prebuilt X-ca-ca-X
  866     867     868     869         9       180.000       4.18400    2     ; N-C-C-C, prebuilt X-c-ca-X
  866     867     868     872         9       180.000       4.18400    2     ; N-C-C-C, prebuilt X-c-ca-X
  866     870     869     868         9       180.000       4.18400    2     ; N-C-C-C, prebuilt X-c-ca-X
  866     870     869     875         9       180.000       4.18400    2     ; N-C-C-C, prebuilt X-c-ca-X
  867     866     870     869         9       180.000      10.46000    2     ; C-N-C-C, prebuilt X-c-n-X
  867     866     870     871         9       180.000      10.46000    2     ; C-N-C-O, prebuilt X-c-n-X
  867     868     869     870         9       180.000      15.16700    2     ; C-C-C-C, prebuilt X-ca-ca-X
  867     868     869     875         9       180.000      15.16700    2     ; C-C-C-C, prebuilt X-ca-ca-X
  867     868     872     873         9       180.000      15.16700    2     ; C-C-C-C, prebuilt X-ca-ca-X
  867     868     872     931         9       180.000      15.16700    2     ; C-C-C-H, prebuilt X-ca-ca-X
  868     867     866     870         9       180.000      10.46000    2     ; C-C-N-C, prebuilt X-c-n-X
  868     869     870     871         9       180.000       4.18400    2     ; C-C-C-O, prebuilt X-c-ca-X
  868     869     875     874         9       180.000      15.16700    2     ; C-C-C-C, prebuilt X-ca-ca-X
  868     869     875     933         9       180.000      15.16700    2     ; C-C-C-H, prebuilt X-ca-ca-X
  868     872     873     874         9       180.000      15.16700    2     ; C-C-C-C, prebuilt X-ca-ca-X
  868     872     873     882         9       180.000      15.16700    2     ; C-C-C-C, prebuilt X-ca-ca-X
  869     868     867     891         9       180.000       4.18400    2     ; C-C-C-O, prebuilt X-c-ca-X
  869     868     872     873         9       180.000      15.16700    2     ; C-C-C-C, prebuilt X-ca-ca-X
  869     868     872     931         9       180.000      15.16700    2     ; C-C-C-H, prebuilt X-ca-ca-X
  869     875     874     873         9       180.000      15.16700    2     ; C-C-C-C, prebuilt X-ca-ca-X
  869     875     874     932         9       180.000      15.16700    2     ; C-C-C-H, prebuilt X-ca-ca-X
  870     866     867     891         9       180.000      10.46000    2     ; C-N-C-O, prebuilt X-c-n-X
  870     869     868     872         9       180.000      15.16700    2     ; C-C-C-C, prebuilt X-ca-ca-X
  870     869     875     874         9       180.000      15.16700    2     ; C-C-C-C, prebuilt X-ca-ca-X
  870     869     875     933         9       180.000      15.16700    2     ; C-C-C-H, prebuilt X-ca-ca-X
  871     870     869     875         9       180.000       4.18400    2     ; O-C-C-C, prebuilt X-c-ca-X
  872     868     867     891         9       180.000       4.18400    2     ; C-C-C-O, prebuilt X-c-ca-X
  872     868     869     875         9       180.000      15.16700    2     ; C-C-C-C, prebuilt X-ca-ca-X
  872     873     874     875         9       180.000      15.16700    2     ; C-C-C-C, prebuilt X-ca-ca-X
  872     873     874     932         9       180.000      15.16700    2     ; C-C-C-H, prebuilt X-ca-ca-X
  872     873     882     876         9         0.000       0.00000    2     ; C-C-C-C, prebuilt X-c3-ca-X
  872     873     882     883         9         0.000       0.00000    2     ; C-C-C-C, prebuilt X-c3-ca-X
  872     873     882     887         9         0.000       0.00000    2     ; C-C-C-C, prebuilt X-c3-ca-X
  873     874     875     933         9       180.000      15.16700    2     ; C-C-C-H, prebuilt X-ca-ca-X
  873     882     876     877         9         0.000       0.00000    2     ; C-C-C-C, prebuilt X-c3-ca-X
  873     882     876     879         9         0.000       0.00000    2     ; C-C-C-C, prebuilt X-c3-ca-X
  873     882     883     884         9         0.000       0.65084    3     ; C-C-C-F, prebuilt X-c3-c3-X
  873     882     883     885         9         0.000       0.65084    3     ; C-C-C-F, prebuilt X-c3-c3-X
  873     882     883     886         9         0.000       0.65084    3     ; C-C-C-F, prebuilt X-c3-c3-X
  873     882     887     888         9         0.000       0.65084    3     ; C-C-C-F, prebuilt X-c3-c3-X
  873     882     887     889         9         0.000       0.65084    3     ; C-C-C-F, prebuilt X-c3-c3-X
  873     882     887     890         9         0.000       0.65084    3     ; C-C-C-F, prebuilt X-c3-c3-X
  874     873     872     931         9       180.000      15.16700    2     ; C-C-C-H, prebuilt X-ca-ca-X
  874     873     882     876         9         0.000       0.00000    2     ; C-C-C-C, prebuilt X-c3-ca-X
  874     873     882     883         9         0.000       0.00000    2     ; C-C-C-C, prebuilt X-c3-ca-X
  874     873     882     887         9         0.000       0.00000    2     ; C-C-C-C, prebuilt X-c3-ca-X
  875     874     873     882         9       180.000      15.16700    2     ; C-C-C-C, prebuilt X-ca-ca-X
  876     877     878     880         9       180.000      15.16700    2     ; C-C-C-C, prebuilt X-ca-ca-X
  876     877     878     892         9       180.000      15.16700    2     ; C-C-C-C, prebuilt X-ca-ca-X
  876     879     881     880         9       180.000      15.16700    2     ; C-C-C-C, prebuilt X-ca-ca-X
  876     879     881     936         9       180.000      15.16700    2     ; C-C-C-H, prebuilt X-ca-ca-X
  876     882     883     884         9         0.000       0.65084    3     ; C-C-C-F, prebuilt X-c3-c3-X
  876     882     883     885         9         0.000       0.65084    3     ; C-C-C-F, prebuilt X-c3-c3-X
  876     882     883     886         9         0.000       0.65084    3     ; C-C-C-F, prebuilt X-c3-c3-X
  876     882     887     888         9         0.000       0.65084    3     ; C-C-C-F, prebuilt X-c3-c3-X
  876     882     887     889         9         0.000       0.65084    3     ; C-C-C-F, prebuilt X-c3-c3-X
  876     882     887     890         9         0.000       0.65084    3     ; C-C-C-F, prebuilt X-c3-c3-X
  877     876     879     881         9       180.000      15.16700    2     ; C-C-C-C, prebuilt X-ca-ca-X
  877     876     879     934         9       180.000      15.16700    2     ; C-C-C-H, prebuilt X-ca-ca-X
  877     876     882     883         9         0.000       0.00000    2     ; C-C-C-C, prebuilt X-c3-ca-X
  877     876     882     887         9         0.000       0.00000    2     ; C-C-C-C, prebuilt X-c3-ca-X
  877     878     880     881         9       180.000      15.16700    2     ; C-C-C-C, prebuilt X-ca-ca-X
  877     878     880     894         9       180.000      15.16700    2     ; C-C-C-C, prebuilt X-ca-ca-X
  877     878     892     893         9       180.000       4.18400    2     ; C-C-C-N, prebuilt X-c-ca-X
  877     878     892     937         9       180.000       4.18400    2     ; C-C-C-O, prebuilt X-c-ca-X
  878     877     876     879         9       180.000      15.16700    2     ; C-C-C-C, prebuilt X-ca-ca-X
  878     877     876     882         9       180.000      15.16700    2     ; C-C-C-C, prebuilt X-ca-ca-X
  878     880     881     879         9       180.000      15.16700    2     ; C-C-C-C, prebuilt X-ca-ca-X
  878     880     881     936         9       180.000      15.16700    2     ; C-C-C-H, prebuilt X-ca-ca-X
  878     880     894     893         9       180.000       4.18400    2     ; C-C-C-N, prebuilt X-c-ca-X
  878     880     894     895         9       180.000       4.18400    2     ; C-C-C-O, prebuilt X-c-ca-X
  878     892     893     894         9       180.000      10.46000    2     ; C-C-N-C, prebuilt X-c-n-X
  878     892     893    1009         9       180.000      10.46000    2     ; C-C-N-C, prebuilt X-c-n-X
  879     876     877     935         9       180.000      15.16700    2     ; C-C-C-H, prebuilt X-ca-ca-X
  879     876     882     883         9         0.000       0.00000    2     ; C-C-C-C, prebuilt X-c3-ca-X
  879     876     882     887         9         0.000       0.00000    2     ; C-C-C-C, prebuilt X-c3-ca-X
  879     881     880     894         9       180.000      15.16700    2     ; C-C-C-C, prebuilt X-ca-ca-X
  880     878     877     935         9       180.000      15.16700    2     ; C-C-C-H, prebuilt X-ca-ca-X
  880     878     892     893         9       180.000       4.18400    2     ; C-C-C-N, prebuilt X-c-ca-X
  880     878     892     937         9       180.000       4.18400    2     ; C-C-C-O, prebuilt X-c-ca-X
  880     881     879     934         9       180.000      15.16700    2     ; C-C-C-H, prebuilt X-ca-ca-X
  880     894     893     892         9       180.000      10.46000    2     ; C-C-N-C, prebuilt X-c-n-X
  880     894     893    1009         9       180.000      10.46000    2     ; C-C-N-C, prebuilt X-c-n-X
  881     879     876     882         9       180.000      15.16700    2     ; C-C-C-C, prebuilt X-ca-ca-X
  881     880     878     892         9       180.000      15.16700    2     ; C-C-C-C, prebuilt X-ca-ca-X
  881     880     894     893         9       180.000       4.18400    2     ; C-C-C-N, prebuilt X-c-ca-X
  881     880     894     895         9       180.000       4.18400    2     ; C-C-C-O, prebuilt X-c-ca-X
  882     873     872     931         9       180.000      15.16700    2     ; C-C-C-H, prebuilt X-ca-ca-X
  882     873     874     932         9       180.000      15.16700    2     ; C-C-C-H, prebuilt X-ca-ca-X
  882     876     877     935         9       180.000      15.16700    2     ; C-C-C-H, prebuilt X-ca-ca-X
  882     876     879     934         9       180.000      15.16700    2     ; C-C-C-H, prebuilt X-ca-ca-X
  883     882     887     888         9         0.000       0.65084    3     ; C-C-C-F, prebuilt X-c3-c3-X
  883     882     887     889         9         0.000       0.65084    3     ; C-C-C-F, prebuilt X-c3-c3-X
  883     882     887     890         9         0.000       0.65084    3     ; C-C-C-F, prebuilt X-c3-c3-X
  884     883     882     887         9         0.000       0.65084    3     ; F-C-C-C, prebuilt X-c3-c3-X
  885     883     882     887         9         0.000       0.65084    3     ; F-C-C-C, prebuilt X-c3-c3-X
  886     883     882     887         9         0.000       0.65084    3     ; F-C-C-C, prebuilt X-c3-c3-X
  892     878     877     935         9       180.000      15.16700    2     ; C-C-C-H, prebuilt X-ca-ca-X
  892     878     880     894         9       180.000      15.16700    2     ; C-C-C-C, prebuilt X-ca-ca-X
  892     893     894     895         9       180.000      10.46000    2     ; C-N-C-O, prebuilt X-c-n-X
  892     893    1009    1008         9       180.000       1.88280    2     ; C-N-C-C, prebuilt X-ca-n-X
  892     893    1009    1010         9       180.000       1.88280    2     ; C-N-C-C, prebuilt X-ca-n-X
  893    1009    1008    1007         9       180.000      15.16700    2     ; N-C-C-C, prebuilt X-ca-ca-X
  893    1009    1008    1036         9       180.000      15.16700    2     ; N-C-C-H, prebuilt X-ca-ca-X
  893    1009    1010    1011         9       180.000      15.16700    2     ; N-C-C-C, prebuilt X-ca-ca-X
  893    1009    1010    1038         9       180.000      15.16700    2     ; N-C-C-H, prebuilt X-ca-ca-X
  894     880     881     936         9       180.000      15.16700    2     ; C-C-C-H, prebuilt X-ca-ca-X
  894     893     892     937         9       180.000      10.46000    2     ; C-N-C-O, prebuilt X-c-n-X
  894     893    1009    1008         9       180.000       1.88280    2     ; C-N-C-C, prebuilt X-ca-n-X
  894     893    1009    1010         9       180.000       1.88280    2     ; C-N-C-C, prebuilt X-ca-n-X
  895     894     893    1009         9       180.000      10.46000    2     ; O-C-N-C, prebuilt X-c-n-X
  896     859     857     922         9       180.000       2.61500    2     ; C-C-N-C, prebuilt X-c2-na-X
  896     859     857     948         9       180.000       2.61500    2     ; C-C-N-C, prebuilt X-c2-na-X
  896     859     858     921         9       180.000       2.61500    2     ; C-C-N-C, prebuilt X-c2-na-X
  896     897     899     901         9       180.000      15.16700    2     ; C-C-C-C, prebuilt X-ca-ca-X
  896     897     899     939         9       180.000      15.16700    2     ; C-C-C-H, prebuilt X-ca-ca-X
  896     898     900     901         9       180.000      15.16700    2     ; C-C-C-C, prebuilt X-ca-ca-X
  896     898     900     946         9       180.000      15.16700    2     ; C-C-C-H, prebuilt X-ca-ca-X
  897     896     898     900         9       180.000      15.16700    2     ; C-C-C-C, prebuilt X-ca-ca-X
  897     896     898     940         9       180.000      15.16700    2     ; C-C-C-H, prebuilt X-ca-ca-X
  897     899     901     900         9       180.000      15.16700    2     ; C-C-C-C, prebuilt X-ca-ca-X
  897     899     901     902         9       180.000      15.16700    2     ; C-C-C-C, prebuilt X-ca-ca-X
  898     896     897     899         9       180.000      15.16700    2     ; C-C-C-C, prebuilt X-ca-ca-X
  898     896     897     938         9       180.000      15.16700    2     ; C-C-C-H, prebuilt X-ca-ca-X
  898     900     901     899         9       180.000      15.16700    2     ; C-C-C-C, prebuilt X-ca-ca-X
  898     900     901     902         9       180.000      15.16700    2     ; C-C-C-C, prebuilt X-ca-ca-X
  899     901     900     946         9       180.000      15.16700    2     ; C-C-C-H, prebuilt X-ca-ca-X
  899     901     902     903         9       180.000       2.92880    2     ; C-C-C-N, prebuilt X-c2-ca-X
  899     901     902     904         9       180.000       2.92880    2     ; C-C-C-N, prebuilt X-c2-ca-X
  900     901     899     939         9       180.000      15.16700    2     ; C-C-C-H, prebuilt X-ca-ca-X
  900     901     902     903         9       180.000       2.92880    2     ; C-C-C-N, prebuilt X-c2-ca-X
  900     901     902     904         9       180.000       2.92880    2     ; C-C-C-N, prebuilt X-c2-ca-X
  901     899     897     938         9       180.000      15.16700    2     ; C-C-C-H, prebuilt X-ca-ca-X
  901     900     898     940         9       180.000      15.16700    2     ; C-C-C-H, prebuilt X-ca-ca-X
  901     902     903     905         9       180.000       2.61500    2     ; C-C-N-C, prebuilt X-c2-na-X
  901     902     903     911         9       180.000       2.61500    2     ; C-C-N-C, prebuilt X-c2-na-X
  901     902     904     906         9       180.000       2.61500    2     ; C-C-N-C, prebuilt X-c2-na-X
  901     902     904     907         9       180.000       2.61500    2     ; C-C-N-C, prebuilt X-c2-na-X
  902     901     899     939         9       180.000      15.16700    2     ; C-C-C-H, prebuilt X-ca-ca-X
  902     901     900     946         9       180.000      15.16700    2     ; C-C-C-H, prebuilt X-ca-ca-X
  902     903     905     906         9       180.000       2.61500    2     ; C-N-C-C, prebuilt X-c2-na-X
  902     903     905     945         9       180.000       2.61500    2     ; C-N-C-H, prebuilt X-c2-na-X
  902     903     911     912         9       180.000       1.25520    2     ; C-N-C-C, prebuilt X-ca-na-X
  902     903     911     916         9       180.000       1.25520    2     ; C-N-C-C, prebuilt X-ca-na-X
  902     904     906     905         9       180.000       2.61500    2     ; C-N-C-C, prebuilt X-c2-na-X
  902     904     906     917         9       180.000       2.61500    2     ; C-N-C-C, prebuilt X-c2-na-X
  902     904     907     908         9         0.000       0.00000    2     ; C-N-C-H, prebuilt X-c3-na-X
  902     904     907     909         9         0.000       0.00000    2     ; C-N-C-H, prebuilt X-c3-na-X
  902     904     907     910         9         0.000       0.00000    2     ; C-N-C-H, prebuilt X-c3-na-X
  903     902     904     906         9       180.000       2.61500    2     ; N-C-N-C, prebuilt X-c2-na-X
  903     902     904     907         9       180.000       2.61500    2     ; N-C-N-C, prebuilt X-c2-na-X
  903     905     906     904         9       180.000      27.82360    2     ; N-C-C-N, prebuilt X-c2-c2-X
  903     905     906     917         9       180.000      27.82360    2     ; N-C-C-C, prebuilt X-c2-c2-X
  903     911     912     913         9       180.000      15.16700    2     ; N-C-C-C, prebuilt X-ca-ca-X
  903     911     912     942         9       180.000      15.16700    2     ; N-C-C-H, prebuilt X-ca-ca-X
  903     911     916     915         9       180.000      15.16700    2     ; N-C-C-C, prebuilt X-ca-ca-X
  903     911     916     944         9       180.000      15.16700    2     ; N-C-C-H, prebuilt X-ca-ca-X
  904     902     903     905         9       180.000       2.61500    2     ; N-C-N-C, prebuilt X-c2-na-X
  904     902     903     911         9       180.000       2.61500    2     ; N-C-N-C, prebuilt X-c2-na-X
  904     906     905     945         9       180.000      27.82360    2     ; N-C-C-H, prebuilt X-c2-c2-X
  904     906     917     918         9         0.000       0.00000    2     ; N-C-C-F, prebuilt X-c2-c3-X
  904     906     917     919         9         0.000       0.00000    2     ; N-C-C-F, prebuilt X-c2-c3-X
  904     906     917     920         9         0.000       0.00000    2     ; N-C-C-F, prebuilt X-c2-c3-X
  905     903     911     912         9       180.000       1.25520    2     ; C-N-C-C, prebuilt X-ca-na-X
  905     903     911     916         9       180.000       1.25520    2     ; C-N-C-C, prebuilt X-ca-na-X
  905     906     904     907         9       180.000       2.61500    2     ; C-C-N-C, prebuilt X-c2-na-X
  905     906     917     918         9         0.000       0.00000    2     ; C-C-C-F, prebuilt X-c2-c3-X
  905     906     917     919         9         0.000       0.00000    2     ; C-C-C-F, prebuilt X-c2-c3-X
  905     906     917     920         9         0.000       0.00000    2     ; C-C-C-F, prebuilt X-c2-c3-X
  906     904     907     908         9         0.000       0.00000    2     ; C-N-C-H, prebuilt X-c3-na-X
  906     904     907     909         9         0.000       0.00000    2     ; C-N-C-H, prebuilt X-c3-na-X
  906     904     907     910         9         0.000       0.00000    2     ; C-N-C-H, prebuilt X-c3-na-X
  906     905     903     911         9       180.000       2.61500    2     ; C-C-N-C, prebuilt X-c2-na-X
  907     904     906     917         9       180.000       2.61500    2     ; C-N-C-C, prebuilt X-c2-na-X
  911     903     905     945         9       180.000       2.61500    2     ; C-N-C-H, prebuilt X-c2-na-X
  911     912     913     914         9       180.000      15.16700    2     ; C-C-C-C, prebuilt X-ca-ca-X
  911     912     913     941         9       180.000      15.16700    2     ; C-C-C-H, prebuilt X-ca-ca-X
  911     916     915     914         9       180.000      15.16700    2     ; C-C-C-C, prebuilt X-ca-ca-X
  911     916     915     943         9       180.000      15.16700    2     ; C-C-C-H, prebuilt X-ca-ca-X
  912     911     916     915         9       180.000      15.16700    2     ; C-C-C-C, prebuilt X-ca-ca-X
  912     911     916     944         9       180.000      15.16700    2     ; C-C-C-H, prebuilt X-ca-ca-X
  912     913     914     915         9       180.000      15.16700    2     ; C-C-C-C, prebuilt X-ca-ca-X
  913     912     911     916         9       180.000      15.16700    2     ; C-C-C-C, prebuilt X-ca-ca-X
  913     914     915     916         9       180.000      15.16700    2     ; C-C-C-C, prebuilt X-ca-ca-X
  913     914     915     943         9       180.000      15.16700    2     ; C-C-C-H, prebuilt X-ca-ca-X
  914     913     912     942         9       180.000      15.16700    2     ; C-C-C-H, prebuilt X-ca-ca-X
  914     915     916     944         9       180.000      15.16700    2     ; C-C-C-H, prebuilt X-ca-ca-X
  915     914     913     941         9       180.000      15.16700    2     ; C-C-C-H, prebuilt X-ca-ca-X
  916     911     912     942         9       180.000      15.16700    2     ; C-C-C-H, prebuilt X-ca-ca-X
  917     906     905     945         9       180.000      27.82360    2     ; C-C-C-H, prebuilt X-c2-c2-X
  921     922     857     948         9       180.000       2.61500    2     ; C-C-N-C, prebuilt X-c2-na-X
  921     922     923     924         9         0.000       0.00000    2     ; C-C-C-F, prebuilt X-c2-c3-X
  921     922     923     925         9         0.000       0.00000    2     ; C-C-C-F, prebuilt X-c2-c3-X
  921     922     923     947         9         0.000       0.00000    2     ; C-C-C-F, prebuilt X-c2-c3-X
  922     857     948     949         9         0.000       0.00000    2     ; C-N-C-H, prebuilt X-c3-na-X
  922     857     948     950         9         0.000       0.00000    2     ; C-N-C-H, prebuilt X-c3-na-X
  922     857     948     951         9         0.000       0.00000    2     ; C-N-C-H, prebuilt X-c3-na-X
  923     922     857     948         9       180.000       2.61500    2     ; C-C-N-C, prebuilt X-c2-na-X
  923     922     921     926         9       180.000      27.82360    2     ; C-C-C-H, prebuilt X-c2-c2-X
  927     861     862     928         9       180.000      15.16700    2     ; H-C-C-H, prebuilt X-ca-ca-X
  929     865     864     930         9       180.000      15.16700    2     ; H-C-C-H, prebuilt X-ca-ca-X
  932     874     875     933         9       180.000      15.16700    2     ; H-C-C-H, prebuilt X-ca-ca-X
  934     879     881     936         9       180.000      15.16700    2     ; H-C-C-H, prebuilt X-ca-ca-X
  937     892     893    1009         9       180.000      10.46000    2     ; O-C-N-C, prebuilt X-c-n-X
  938     897     899     939         9       180.000      15.16700    2     ; H-C-C-H, prebuilt X-ca-ca-X
  940     898     900     946         9       180.000      15.16700    2     ; H-C-C-H, prebuilt X-ca-ca-X
  941     913     912     942         9       180.000      15.16700    2     ; H-C-C-H, prebuilt X-ca-ca-X
  943     915     916     944         9       180.000      15.16700    2     ; H-C-C-H, prebuilt X-ca-ca-X
  952     954     953     955         9       180.000       2.61500    2     ; N-C-N-C, prebuilt X-c2-na-X
  952     954     953    1016         9       180.000       2.61500    2     ; N-C-N-C, prebuilt X-c2-na-X
  952     954     991     992         9       180.000       2.92880    2     ; N-C-C-C, prebuilt X-c2-ca-X
  952     954     991     993         9       180.000       2.92880    2     ; N-C-C-C, prebuilt X-c2-ca-X
  952    1017    1016     953         9       180.000      27.82360    2     ; N-C-C-N, prebuilt X-c2-c2-X
  952    1017    1016    1021         9       180.000      27.82360    2     ; N-C-C-H, prebuilt X-c2-c2-X
  952    1017    1018    1019         9         0.000       0.00000    2     ; N-C-C-F, prebuilt X-c2-c3-X
  952    1017    1018    1020         9         0.000       0.00000    2     ; N-C-C-F, prebuilt X-c2-c3-X
  952    1017    1018    1042         9         0.000       0.00000    2     ; N-C-C-F, prebuilt X-c2-c3-X
  953     954     952    1017         9       180.000       2.61500    2     ; N-C-N-C, prebuilt X-c2-na-X
  953     954     952    1043         9       180.000       2.61500    2     ; N-C-N-C, prebuilt X-c2-na-X
  953     954     991     992         9       180.000       2.92880    2     ; N-C-C-C, prebuilt X-c2-ca-X
  953     954     991     993         9       180.000       2.92880    2     ; N-C-C-C, prebuilt X-c2-ca-X
  953     955     956     957         9       180.000      15.16700    2     ; N-C-C-C, prebuilt X-ca-ca-X
  953     955     956    1022         9       180.000      15.16700    2     ; N-C-C-H, prebuilt X-ca-ca-X
  953     955     960     959         9       180.000      15.16700    2     ; N-C-C-C, prebuilt X-ca-ca-X
  953     955     960    1024         9       180.000      15.16700    2     ; N-C-C-H, prebuilt X-ca-ca-X
  953    1016    1017    1018         9       180.000      27.82360    2     ; N-C-C-C, prebuilt X-c2-c2-X
  954     952    1017    1016         9       180.000       2.61500    2     ; C-N-C-C, prebuilt X-c2-na-X
  954     952    1017    1018         9       180.000       2.61500    2     ; C-N-C-C, prebuilt X-c2-na-X
  954     952    1043    1044         9         0.000       0.00000    2     ; C-N-C-H, prebuilt X-c3-na-X
  954     952    1043    1045         9         0.000       0.00000    2     ; C-N-C-H, prebuilt X-c3-na-X
  954     952    1043    1046         9         0.000       0.00000    2     ; C-N-C-H, prebuilt X-c3-na-X
  954     953     955     956         9       180.000       1.25520    2     ; C-N-C-C, prebuilt X-ca-na-X
  954     953     955     960         9       180.000       1.25520    2     ; C-N-C-C, prebuilt X-ca-na-X
  954     953    1016    1017         9       180.000       2.61500    2     ; C-N-C-C, prebuilt X-c2-na-X
  954     953    1016    1021         9       180.000       2.61500    2     ; C-N-C-H, prebuilt X-c2-na-X
  954     991     992     994         9       180.000      15.16700    2     ; C-C-C-C, prebuilt X-ca-ca-X
  954     991     992    1033         9       180.000      15.16700    2     ; C-C-C-H, prebuilt X-ca-ca-X
  954     991     993     995         9       180.000      15.16700    2     ; C-C-C-C, prebuilt X-ca-ca-X
  954     991     993    1035         9       180.000      15.16700    2     ; C-C-C-H, prebuilt X-ca-ca-X
  955     953     954     991         9       180.000       2.61500    2     ; C-N-C-C, prebuilt X-c2-na-X
  955     953    1016    1017         9       180.000       2.61500    2     ; C-N-C-C, prebuilt X-c2-na-X
  955     953    1016    1021         9       180.000       2.61500    2     ; C-N-C-H, prebuilt X-c2-na-X
  955     956     957     958         9       180.000      15.16700    2     ; C-C-C-C, prebuilt X-ca-ca-X
  955     956     957    1023         9       180.000      15.16700    2     ; C-C-C-H, prebuilt X-ca-ca-X
  955     960     959     958         9       180.000      15.16700    2     ; C-C-C-C, prebuilt X-ca-ca-X
  955     960     959    1025         9       180.000      15.16700    2     ; C-C-C-H, prebuilt X-ca-ca-X
  956     955     953    1016         9       180.000       1.25520    2     ; C-C-N-C, prebuilt X-ca-na-X
  956     955     960     959         9       180.000      15.16700    2     ; C-C-C-C, prebuilt X-ca-ca-X
  956     955     960    1024         9       180.000      15.16700    2     ; C-C-C-H, prebuilt X-ca-ca-X
  956     957     958     959         9       180.000      15.16700    2     ; C-C-C-C, prebuilt X-ca-ca-X
  956     957     958     961         9       180.000      15.16700    2     ; C-C-C-N, prebuilt X-ca-ca-X
  957     956     955     960         9       180.000      15.16700    2     ; C-C-C-C, prebuilt X-ca-ca-X
  957     958     959     960         9       180.000      15.16700    2     ; C-C-C-C, prebuilt X-ca-ca-X
  957     958     959    1025         9       180.000      15.16700    2     ; C-C-C-H, prebuilt X-ca-ca-X
  957     958     961     962         9       180.000       1.88280    2     ; C-C-N-C, prebuilt X-ca-n-X
  957     958     961     965         9       180.000       1.88280    2     ; C-C-N-C, prebuilt X-ca-n-X
  958     957     956    1022         9       180.000      15.16700    2     ; C-C-C-H, prebuilt X-ca-ca-X
  958     959     960    1024         9       180.000      15.16700    2     ; C-C-C-H, prebuilt X-ca-ca-X
  958     961     962     963         9       180.000      10.46000    2     ; C-N-C-C, prebuilt X-c-n-X
  958     961     962     986         9       180.000      10.46000    2     ; C-N-C-O, prebuilt X-c-n-X
  958     961     965     964         9       180.000      10.46000    2     ; C-N-C-C, prebuilt X-c-n-X
  958     961     965     966         9       180.000      10.46000    2     ; C-N-C-O, prebuilt X-c-n-X
  959     958     957    1023         9       180.000      15.16700    2     ; C-C-C-H, prebuilt X-ca-ca-X
  959     958     961     962         9       180.000       1.88280    2     ; C-C-N-C, prebuilt X-ca-n-X
  959     958     961     965         9       180.000       1.88280    2     ; C-C-N-C, prebuilt X-ca-n-X
  960     955     953    1016         9       180.000       1.25520    2     ; C-C-N-C, prebuilt X-ca-na-X
  960     955     956    1022         9       180.000      15.16700    2     ; C-C-C-H, prebuilt X-ca-ca-X
  960     959     958     961         9       180.000      15.16700    2     ; C-C-C-N, prebuilt X-ca-ca-X
  961     958     957    1023         9       180.000      15.16700    2     ; N-C-C-H, prebuilt X-ca-ca-X
  961     958     959    1025         9       180.000      15.16700    2     ; N-C-C-H, prebuilt X-ca-ca-X
  961     962     963     964         9       180.000       4.18400    2     ; N-C-C-C, prebuilt X-c-ca-X
  961     962     963     967         9       180.000       4.18400    2     ; N-C-C-C, prebuilt X-c-ca-X
  961     965     964     963         9       180.000       4.18400    2     ; N-C-C-C, prebuilt X-c-ca-X
  961     965     964     970         9       180.000       4.18400    2     ; N-C-C-C, prebuilt X-c-ca-X
  962     961     965     964         9       180.000      10.46000    2     ; C-N-C-C, prebuilt X-c-n-X
  962     961     965     966         9       180.000      10.46000    2     ; C-N-C-O, prebuilt X-c-n-X
  962     963     964     965         9       180.000      15.16700    2     ; C-C-C-C, prebuilt X-ca-ca-X
  962     963     964     970         9       180.000      15.16700    2     ; C-C-C-C, prebuilt X-ca-ca-X
  962     963     967     968         9       180.000      15.16700    2     ; C-C-C-C, prebuilt X-ca-ca-X
  962     963     967    1026         9       180.000      15.16700    2     ; C-C-C-H, prebuilt X-ca-ca-X
  963     962     961     965         9       180.000      10.46000    2     ; C-C-N-C, prebuilt X-c-n-X
  963     964     965     966         9       180.000       4.18400    2     ; C-C-C-O, prebuilt X-c-ca-X
  963     964     970     969         9       180.000      15.16700    2     ; C-C-C-C, prebuilt X-ca-ca-X
  963     964     970    1028         9       180.000      15.16700    2     ; C-C-C-H, prebuilt X-ca-ca-X
  963     967     968     969         9       180.000      15.16700    2     ; C-C-C-C, prebuilt X-ca-ca-X
  963     967     968     977         9       180.000      15.16700    2     ; C-C-C-C, prebuilt X-ca-ca-X
  964     963     962     986         9       180.000       4.18400    2     ; C-C-C-O, prebuilt X-c-ca-X
  964     963     967     968         9       180.000      15.16700    2     ; C-C-C-C, prebuilt X-ca-ca-X
  964     963     967    1026         9       180.000      15.16700    2     ; C-C-C-H, prebuilt X-ca-ca-X
  964     970     969     968         9       180.000      15.16700    2     ; C-C-C-C, prebuilt X-ca-ca-X
  964     970     969    1027         9       180.000      15.16700    2     ; C-C-C-H, prebuilt X-ca-ca-X
  965     961     962     986         9       180.000      10.46000    2     ; C-N-C-O, prebuilt X-c-n-X
  965     964     963     967         9       180.000      15.16700    2     ; C-C-C-C, prebuilt X-ca-ca-X
  965     964     970     969         9       180.000      15.16700    2     ; C-C-C-C, prebuilt X-ca-ca-X
  965     964     970    1028         9       180.000      15.16700    2     ; C-C-C-H, prebuilt X-ca-ca-X
  966     965     964     970         9       180.000       4.18400    2     ; O-C-C-C, prebuilt X-c-ca-X
  967     963     962     986         9       180.000       4.18400    2     ; C-C-C-O, prebuilt X-c-ca-X
  967     963     964     970         9       180.000      15.16700    2     ; C-C-C-C, prebuilt X-ca-ca-X
  967     968     969     970         9       180.000      15.16700    2     ; C-C-C-C, prebuilt X-ca-ca-X
  967     968     969    1027         9       180.000      15.16700    2     ; C-C-C-H, prebuilt X-ca-ca-X
  967     968     977     971         9         0.000       0.00000    2     ; C-C-C-C, prebuilt X-c3-ca-X
  967     968     977     978         9         0.000       0.00000    2     ; C-C-C-C, prebuilt X-c3-ca-X
  967     968     977     982         9         0.000       0.00000    2     ; C-C-C-C, prebuilt X-c3-ca-X
  968     969     970    1028         9       180.000      15.16700    2     ; C-C-C-H, prebuilt X-ca-ca-X
  968     977     971     972         9         0.000       0.00000    2     ; C-C-C-C, prebuilt X-c3-ca-X
  968     977     971     974         9         0.000       0.00000    2     ; C-C-C-C, prebuilt X-c3-ca-X
  968     977     978     979         9         0.000       0.65084    3     ; C-C-C-F, prebuilt X-c3-c3-X
  968     977     978     980         9         0.000       0.65084    3     ; C-C-C-F, prebuilt X-c3-c3-X
  968     977     978     981         9         0.000       0.65084    3     ; C-C-C-F, prebuilt X-c3-c3-X
  968     977     982     983         9         0.000       0.65084    3     ; C-C-C-F, prebuilt X-c3-c3-X
  968     977     982     984         9         0.000       0.65084    3     ; C-C-C-F, prebuilt X-c3-c3-X
  968     977     982     985         9         0.000       0.65084    3     ; C-C-C-F, prebuilt X-c3-c3-X
  969     968     967    1026         9       180.000      15.16700    2     ; C-C-C-H, prebuilt X-ca-ca-X
  969     968     977     971         9         0.000       0.00000    2     ; C-C-C-C, prebuilt X-c3-ca-X
  969     968     977     978         9         0.000       0.00000    2     ; C-C-C-C, prebuilt X-c3-ca-X
  969     968     977     982         9         0.000       0.00000    2     ; C-C-C-C, prebuilt X-c3-ca-X
  970     969     968     977         9       180.000      15.16700    2     ; C-C-C-C, prebuilt X-ca-ca-X
  971     972     973     975         9       180.000      15.16700    2     ; C-C-C-C, prebuilt X-ca-ca-X
  971     972     973     987         9       180.000      15.16700    2     ; C-C-C-C, prebuilt X-ca-ca-X
  971     974     976     975         9       180.000      15.16700    2     ; C-C-C-C, prebuilt X-ca-ca-X
  971     974     976    1031         9       180.000      15.16700    2     ; C-C-C-H, prebuilt X-ca-ca-X
  971     977     978     979         9         0.000       0.65084    3     ; C-C-C-F, prebuilt X-c3-c3-X
  971     977     978     980         9         0.000       0.65084    3     ; C-C-C-F, prebuilt X-c3-c3-X
  971     977     978     981         9         0.000       0.65084    3     ; C-C-C-F, prebuilt X-c3-c3-X
  971     977     982     983         9         0.000       0.65084    3     ; C-C-C-F, prebuilt X-c3-c3-X
  971     977     982     984         9         0.000       0.65084    3     ; C-C-C-F, prebuilt X-c3-c3-X
  971     977     982     985         9         0.000       0.65084    3     ; C-C-C-F, prebuilt X-c3-c3-X
  972     971     974     976         9       180.000      15.16700    2     ; C-C-C-C, prebuilt X-ca-ca-X
  972     971     974    1029         9       180.000      15.16700    2     ; C-C-C-H, prebuilt X-ca-ca-X
  972     971     977     978         9         0.000       0.00000    2     ; C-C-C-C, prebuilt X-c3-ca-X
  972     971     977     982         9         0.000       0.00000    2     ; C-C-C-C, prebuilt X-c3-ca-X
  972     973     975     976         9       180.000      15.16700    2     ; C-C-C-C, prebuilt X-ca-ca-X
  972     973     975     989         9       180.000      15.16700    2     ; C-C-C-C, prebuilt X-ca-ca-X
  972     973     987     988         9       180.000       4.18400    2     ; C-C-C-N, prebuilt X-c-ca-X
  972     973     987    1032         9       180.000       4.18400    2     ; C-C-C-O, prebuilt X-c-ca-X
  973     972     971     974         9       180.000      15.16700    2     ; C-C-C-C, prebuilt X-ca-ca-X
  973     972     971     977         9       180.000      15.16700    2     ; C-C-C-C, prebuilt X-ca-ca-X
  973     975     976     974         9       180.000      15.16700    2     ; C-C-C-C, prebuilt X-ca-ca-X
  973     975     976    1031         9       180.000      15.16700    2     ; C-C-C-H, prebuilt X-ca-ca-X
  973     975     989     988         9       180.000       4.18400    2     ; C-C-C-N, prebuilt X-c-ca-X
  973     975     989     990         9       180.000       4.18400    2     ; C-C-C-O, prebuilt X-c-ca-X
  973     987     988     989         9       180.000      10.46000    2     ; C-C-N-C, prebuilt X-c-n-X
  973     987     988    1104         9       180.000      10.46000    2     ; C-C-N-C, prebuilt X-c-n-X
  974     971     972    1030         9       180.000      15.16700    2     ; C-C-C-H, prebuilt X-ca-ca-X
  974     971     977     978         9         0.000       0.00000    2     ; C-C-C-C, prebuilt X-c3-ca-X
  974     971     977     982         9         0.000       0.00000    2     ; C-C-C-C, prebuilt X-c3-ca-X
  974     976     975     989         9       180.000      15.16700    2     ; C-C-C-C, prebuilt X-ca-ca-X
  975     973     972    1030         9       180.000      15.16700    2     ; C-C-C-H, prebuilt X-ca-ca-X
  975     973     987     988         9       180.000       4.18400    2     ; C-C-C-N, prebuilt X-c-ca-X
  975     973     987    1032         9       180.000       4.18400    2     ; C-C-C-O, prebuilt X-c-ca-X
  975     976     974    1029         9       180.000      15.16700    2     ; C-C-C-H, prebuilt X-ca-ca-X
  975     989     988     987         9       180.000      10.46000    2     ; C-C-N-C, prebuilt X-c-n-X
  975     989     988    1104         9       180.000      10.46000    2     ; C-C-N-C, prebuilt X-c-n-X
  976     974     971     977         9       180.000      15.16700    2     ; C-C-C-C, prebuilt X-ca-ca-X
  976     975     973     987         9       180.000      15.16700    2     ; C-C-C-C, prebuilt X-ca-ca-X
  976     975     989     988         9       180.000       4.18400    2     ; C-C-C-N, prebuilt X-c-ca-X
  976     975     989     990         9       180.000       4.18400    2     ; C-C-C-O, prebuilt X-c-ca-X
  977     968     967    1026         9       180.000      15.16700    2     ; C-C-C-H, prebuilt X-ca-ca-X
  977     968     969    1027         9       180.000      15.16700    2     ; C-C-C-H, prebuilt X-ca-ca-X
  977     971     972    1030         9       180.000      15.16700    2     ; C-C-C-H, prebuilt X-ca-ca-X
  977     971     974    1029         9       180.000      15.16700    2     ; C-C-C-H, prebuilt X-ca-ca-X
  978     977     982     983         9         0.000       0.65084    3     ; C-C-C-F, prebuilt X-c3-c3-X
  978     977     982     984         9         0.000       0.65084    3     ; C-C-C-F, prebuilt X-c3-c3-X
  978     977     982     985         9         0.000       0.65084    3     ; C-C-C-F, prebuilt X-c3-c3-X
  979     978     977     982         9         0.000       0.65084    3     ; F-C-C-C, prebuilt X-c3-c3-X
  980     978     977     982         9         0.000       0.65084    3     ; F-C-C-C, prebuilt X-c3-c3-X
  981     978     977     982         9         0.000       0.65084    3     ; F-C-C-C, prebuilt X-c3-c3-X
  987     973     972    1030         9       180.000      15.16700    2     ; C-C-C-H, prebuilt X-ca-ca-X
  987     973     975     989         9       180.000      15.16700    2     ; C-C-C-C, prebuilt X-ca-ca-X
  987     988     989     990         9       180.000      10.46000    2     ; C-N-C-O, prebuilt X-c-n-X
  987     988    1104    1103         9       180.000       1.88280    2     ; C-N-C-C, prebuilt X-ca-n-X
  987     988    1104    1105         9       180.000       1.88280    2     ; C-N-C-C, prebuilt X-ca-n-X
  988    1104    1103    1102         9       180.000      15.16700    2     ; N-C-C-C, prebuilt X-ca-ca-X
  988    1104    1103    1131         9       180.000      15.16700    2     ; N-C-C-H, prebuilt X-ca-ca-X
  988    1104    1105    1106         9       180.000      15.16700    2     ; N-C-C-C, prebuilt X-ca-ca-X
  988    1104    1105    1133         9       180.000      15.16700    2     ; N-C-C-H, prebuilt X-ca-ca-X
  989     975     976    1031         9       180.000      15.16700    2     ; C-C-C-H, prebuilt X-ca-ca-X
  989     988     987    1032         9       180.000      10.46000    2     ; C-N-C-O, prebuilt X-c-n-X
  989     988    1104    1103         9       180.000       1.88280    2     ; C-N-C-C, prebuilt X-ca-n-X
  989     988    1104    1105         9       180.000       1.88280    2     ; C-N-C-C, prebuilt X-ca-n-X
  990     989     988    1104         9       180.000      10.46000    2     ; O-C-N-C, prebuilt X-c-n-X
  991     954     952    1017         9       180.000       2.61500    2     ; C-C-N-C, prebuilt X-c2-na-X
  991     954     952    1043         9       180.000       2.61500    2     ; C-C-N-C, prebuilt X-c2-na-X
  991     954     953    1016         9       180.000       2.61500    2     ; C-C-N-C, prebuilt X-c2-na-X
  991     992     994     996         9       180.000      15.16700    2     ; C-C-C-C, prebuilt X-ca-ca-X
  991     992     994    1034         9       180.000      15.16700    2     ; C-C-C-H, prebuilt X-ca-ca-X
  991     993     995     996         9       180.000      15.16700    2     ; C-C-C-C, prebuilt X-ca-ca-X
  991     993     995    1041         9       180.000      15.16700    2     ; C-C-C-H, prebuilt X-ca-ca-X
  992     991     993     995         9       180.000      15.16700    2     ; C-C-C-C, prebuilt X-ca-ca-X
  992     991     993    1035         9       180.000      15.16700    2     ; C-C-C-H, prebuilt X-ca-ca-X
  992     994     996     995         9       180.000      15.16700    2     ; C-C-C-C, prebuilt X-ca-ca-X
  992     994     996     997         9       180.000      15.16700    2     ; C-C-C-C, prebuilt X-ca-ca-X
  993     991     992     994         9       180.000      15.16700    2     ; C-C-C-C, prebuilt X-ca-ca-X
  993     991     992    1033         9       180.000      15.16700    2     ; C-C-C-H, prebuilt X-ca-ca-X
  993     995     996     994         9       180.000      15.16700    2     ; C-C-C-C, prebuilt X-ca-ca-X
  993     995     996     997         9       180.000      15.16700    2     ; C-C-C-C, prebuilt X-ca-ca-X
  994     996     995    1041         9       180.000      15.16700    2     ; C-C-C-H, prebuilt X-ca-ca-X
  994     996     997     998         9       180.000       2.92880    2     ; C-C-C-N, prebuilt X-c2-ca-X
  994     996     997     999         9       180.000       2.92880    2     ; C-C-C-N, prebuilt X-c2-ca-X
  995     996     994    1034         9       180.000      15.16700    2     ; C-C-C-H, prebuilt X-ca-ca-X
  995     996     997     998         9       180.000       2.92880    2     ; C-C-C-N, prebuilt X-c2-ca-X
  995     996     997     999         9       180.000       2.92880    2     ; C-C-C-N, prebuilt X-c2-ca-X
  996     994     992    1033         9       180.000      15.16700    2     ; C-C-C-H, prebuilt X-ca-ca-X
  996     995     993    1035         9       180.000      15.16700    2     ; C-C-C-H, prebuilt X-ca-ca-X
  996     997     998    1000         9       180.000       2.61500    2     ; C-C-N-C, prebuilt X-c2-na-X
  996     997     998    1006         9       180.000       2.61500    2     ; C-C-N-C, prebuilt X-c2-na-X
  996     997     999    1001         9       180.000       2.61500    2     ; C-C-N-C, prebuilt X-c2-na-X
  996     997     999    1002         9       180.000       2.61500    2     ; C-C-N-C, prebuilt X-c2-na-X
  997     996     994    1034         9       180.000      15.16700    2     ; C-C-C-H, prebuilt X-ca-ca-X
  997     996     995    1041         9       180.000      15.16700    2     ; C-C-C-H, prebuilt X-ca-ca-X
  997     998    1000    1001         9       180.000       2.61500    2     ; C-N-C-C, prebuilt X-c2-na-X
  997     998    1000    1040         9       180.000       2.61500    2     ; C-N-C-H, prebuilt X-c2-na-X
  997     998    1006    1007         9       180.000       1.25520    2     ; C-N-C-C, prebuilt X-ca-na-X
  997     998    1006    1011         9       180.000       1.25520    2     ; C-N-C-C, prebuilt X-ca-na-X
  997     999    1001    1000         9       180.000       2.61500    2     ; C-N-C-C, prebuilt X-c2-na-X
  997     999    1001    1012         9       180.000       2.61500    2     ; C-N-C-C, prebuilt X-c2-na-X
  997     999    1002    1003         9         0.000       0.00000    2     ; C-N-C-H, prebuilt X-c3-na-X
  997     999    1002    1004         9         0.000       0.00000    2     ; C-N-C-H, prebuilt X-c3-na-X
  997     999    1002    1005         9         0.000       0.00000    2     ; C-N-C-H, prebuilt X-c3-na-X
  998     997     999    1001         9       180.000       2.61500    2     ; N-C-N-C, prebuilt X-c2-na-X
  998     997     999    1002         9       180.000       2.61500    2     ; N-C-N-C, prebuilt X-c2-na-X
  998    1000    1001     999         9       180.000      27.82360    2     ; N-C-C-N, prebuilt X-c2-c2-X
  998    1000    1001    1012         9       180.000      27.82360    2     ; N-C-C-C, prebuilt X-c2-c2-X
  998    1006    1007    1008         9       180.000      15.16700    2     ; N-C-C-C, prebuilt X-ca-ca-X
  998    1006    1007    1037         9       180.000      15.16700    2     ; N-C-C-H, prebuilt X-ca-ca-X
  998    1006    1011    1010         9       180.000      15.16700    2     ; N-C-C-C, prebuilt X-ca-ca-X
  998    1006    1011    1039         9       180.000      15.16700    2     ; N-C-C-H, prebuilt X-ca-ca-X
  999     997     998    1000         9       180.000       2.61500    2     ; N-C-N-C, prebuilt X-c2-na-X
  999     997     998    1006         9       180.000       2.61500    2     ; N-C-N-C, prebuilt X-c2-na-X
  999    1001    1000    1040         9       180.000      27.82360    2     ; N-C-C-H, prebuilt X-c2-c2-X
  999    1001    1012    1013         9         0.000       0.00000    2     ; N-C-C-F, prebuilt X-c2-c3-X
  999    1001    1012    1014         9         0.000       0.00000    2     ; N-C-C-F, prebuilt X-c2-c3-X
  999    1001    1012    1015         9         0.000       0.00000    2     ; N-C-C-F, prebuilt X-c2-c3-X
 1000     998    1006    1007         9       180.000       1.25520    2     ; C-N-C-C, prebuilt X-ca-na-X
 1000     998    1006    1011         9       180.000       1.25520    2     ; C-N-C-C, prebuilt X-ca-na-X
 1000    1001     999    1002         9       180.000       2.61500    2     ; C-C-N-C, prebuilt X-c2-na-X
 1000    1001    1012    1013         9         0.000       0.00000    2     ; C-C-C-F, prebuilt X-c2-c3-X
 1000    1001    1012    1014         9         0.000       0.00000    2     ; C-C-C-F, prebuilt X-c2-c3-X
 1000    1001    1012    1015         9         0.000       0.00000    2     ; C-C-C-F, prebuilt X-c2-c3-X
 1001     999    1002    1003         9         0.000       0.00000    2     ; C-N-C-H, prebuilt X-c3-na-X
 1001     999    1002    1004         9         0.000       0.00000    2     ; C-N-C-H, prebuilt X-c3-na-X
 1001     999    1002    1005         9         0.000       0.00000    2     ; C-N-C-H, prebuilt X-c3-na-X
 1001    1000     998    1006         9       180.000       2.61500    2     ; C-C-N-C, prebuilt X-c2-na-X
 1002     999    1001    1012         9       180.000       2.61500    2     ; C-N-C-C, prebuilt X-c2-na-X
 1006     998    1000    1040         9       180.000       2.61500    2     ; C-N-C-H, prebuilt X-c2-na-X
 1006    1007    1008    1009         9       180.000      15.16700    2     ; C-C-C-C, prebuilt X-ca-ca-X
 1006    1007    1008    1036         9       180.000      15.16700    2     ; C-C-C-H, prebuilt X-ca-ca-X
 1006    1011    1010    1009         9       180.000      15.16700    2     ; C-C-C-C, prebuilt X-ca-ca-X
 1006    1011    1010    1038         9       180.000      15.16700    2     ; C-C-C-H, prebuilt X-ca-ca-X
 1007    1006    1011    1010         9       180.000      15.16700    2     ; C-C-C-C, prebuilt X-ca-ca-X
 1007    1006    1011    1039         9       180.000      15.16700    2     ; C-C-C-H, prebuilt X-ca-ca-X
 1007    1008    1009    1010         9       180.000      15.16700    2     ; C-C-C-C, prebuilt X-ca-ca-X
 1008    1007    1006    1011         9       180.000      15.16700    2     ; C-C-C-C, prebuilt X-ca-ca-X
 1008    1009    1010    1011         9       180.000      15.16700    2     ; C-C-C-C, prebuilt X-ca-ca-X
 1008    1009    1010    1038         9       180.000      15.16700    2     ; C-C-C-H, prebuilt X-ca-ca-X
 1009    1008    1007    1037         9       180.000      15.16700    2     ; C-C-C-H, prebuilt X-ca-ca-X
 1009    1010    1011    1039         9       180.000      15.16700    2     ; C-C-C-H, prebuilt X-ca-ca-X
 1010    1009    1008    1036         9       180.000      15.16700    2     ; C-C-C-H, prebuilt X-ca-ca-X
 1011    1006    1007    1037         9       180.000      15.16700    2     ; C-C-C-H, prebuilt X-ca-ca-X
 1012    1001    1000    1040         9       180.000      27.82360    2     ; C-C-C-H, prebuilt X-c2-c2-X
 1016    1017     952    1043         9       180.000       2.61500    2     ; C-C-N-C, prebuilt X-c2-na-X
 1016    1017    1018    1019         9         0.000       0.00000    2     ; C-C-C-F, prebuilt X-c2-c3-X
 1016    1017    1018    1020         9         0.000       0.00000    2     ; C-C-C-F, prebuilt X-c2-c3-X
 1016    1017    1018    1042         9         0.000       0.00000    2     ; C-C-C-F, prebuilt X-c2-c3-X
 1017     952    1043    1044         9         0.000       0.00000    2     ; C-N-C-H, prebuilt X-c3-na-X
 1017     952    1043    1045         9         0.000       0.00000    2     ; C-N-C-H, prebuilt X-c3-na-X
 1017     952    1043    1046         9         0.000       0.00000    2     ; C-N-C-H, prebuilt X-c3-na-X
 1018    1017     952    1043         9       180.000       2.61500    2     ; C-C-N-C, prebuilt X-c2-na-X
 1018    1017    1016    1021         9       180.000      27.82360    2     ; C-C-C-H, prebuilt X-c2-c2-X
 1022     956     957    1023         9       180.000      15.16700    2     ; H-C-C-H, prebuilt X-ca-ca-X
 1024     960     959    1025         9       180.000      15.16700    2     ; H-C-C-H, prebuilt X-ca-ca-X
 1027     969     970    1028         9       180.000      15.16700    2     ; H-C-C-H, prebuilt X-ca-ca-X
 1029     974     976    1031         9       180.000      15.16700    2     ; H-C-C-H, prebuilt X-ca-ca-X
 1032     987     988    1104         9       180.000      10.46000    2     ; O-C-N-C, prebuilt X-c-n-X
 1033     992     994    1034         9       180.000      15.16700    2     ; H-C-C-H, prebuilt X-ca-ca-X
 1035     993     995    1041         9       180.000      15.16700    2     ; H-C-C-H, prebuilt X-ca-ca-X
 1036    1008    1007    1037         9       180.000      15.16700    2     ; H-C-C-H, prebuilt X-ca-ca-X
 1038    1010    1011    1039         9       180.000      15.16700    2     ; H-C-C-H, prebuilt X-ca-ca-X
 1047    1049    1048    1050         9       180.000       2.61500    2     ; N-C-N-C, prebuilt X-c2-na-X
 1047    1049    1048    1111         9       180.000       2.61500    2     ; N-C-N-C, prebuilt X-c2-na-X
 1047    1049    1086    1087         9       180.000       2.92880    2     ; N-C-C-C, prebuilt X-c2-ca-X
 1047    1049    1086    1088         9       180.000       2.92880    2     ; N-C-C-C, prebuilt X-c2-ca-X
 1047    1112    1111    1048         9       180.000      27.82360    2     ; N-C-C-N, prebuilt X-c2-c2-X
 1047    1112    1111    1116         9       180.000      27.82360    2     ; N-C-C-H, prebuilt X-c2-c2-X
 1047    1112    1113    1114         9         0.000       0.00000    2     ; N-C-C-F, prebuilt X-c2-c3-X
 1047    1112    1113    1115         9         0.000       0.00000    2     ; N-C-C-F, prebuilt X-c2-c3-X
 1047    1112    1113    1137         9         0.000       0.00000    2     ; N-C-C-F, prebuilt X-c2-c3-X
 1048    1049    1047    1112         9       180.000       2.61500    2     ; N-C-N-C, prebuilt X-c2-na-X
 1048    1049    1047    1138         9       180.000       2.61500    2     ; N-C-N-C, prebuilt X-c2-na-X
 1048    1049    1086    1087         9       180.000       2.92880    2     ; N-C-C-C, prebuilt X-c2-ca-X
 1048    1049    1086    1088         9       180.000       2.92880    2     ; N-C-C-C, prebuilt X-c2-ca-X
 1048    1050    1051    1052         9       180.000      15.16700    2     ; N-C-C-C, prebuilt X-ca-ca-X
 1048    1050    1051    1117         9       180.000      15.16700    2     ; N-C-C-H, prebuilt X-ca-ca-X
 1048    1050    1055    1054         9       180.000      15.16700    2     ; N-C-C-C, prebuilt X-ca-ca-X
 1048    1050    1055    1119         9       180.000      15.16700    2     ; N-C-C-H, prebuilt X-ca-ca-X
 1048    1111    1112    1113         9       180.000      27.82360    2     ; N-C-C-C, prebuilt X-c2-c2-X
 1049    1047    1112    1111         9       180.000       2.61500    2     ; C-N-C-C, prebuilt X-c2-na-X
 1049    1047    1112    1113         9       180.000       2.61500    2     ; C-N-C-C, prebuilt X-c2-na-X
 1049    1047    1138    1139         9         0.000       0.00000    2     ; C-N-C-H, prebuilt X-c3-na-X
 1049    1047    1138    1140         9         0.000       0.00000    2     ; C-N-C-H, prebuilt X-c3-na-X
 1049    1047    1138    1141         9         0.000       0.00000    2     ; C-N-C-H, prebuilt X-c3-na-X
 1049    1048    1050    1051         9       180.000       1.25520    2     ; C-N-C-C, prebuilt X-ca-na-X
 1049    1048    1050    1055         9       180.000       1.25520    2     ; C-N-C-C, prebuilt X-ca-na-X
 1049    1048    1111    1112         9       180.000       2.61500    2     ; C-N-C-C, prebuilt X-c2-na-X
 1049    1048    1111    1116         9       180.000       2.61500    2     ; C-N-C-H, prebuilt X-c2-na-X
 1049    1086    1087    1089         9       180.000      15.16700    2     ; C-C-C-C, prebuilt X-ca-ca-X
 1049    1086    1087    1128         9       180.000      15.16700    2     ; C-C-C-H, prebuilt X-ca-ca-X
 1049    1086    1088    1090         9       180.000      15.16700    2     ; C-C-C-C, prebuilt X-ca-ca-X
 1049    1086    1088    1130         9       180.000      15.16700    2     ; C-C-C-H, prebuilt X-ca-ca-X
 1050    1048    1049    1086         9       180.000       2.61500    2     ; C-N-C-C, prebuilt X-c2-na-X
 1050    1048    1111    1112         9       180.000       2.61500    2     ; C-N-C-C, prebuilt X-c2-na-X
 1050    1048    1111    1116         9       180.000       2.61500    2     ; C-N-C-H, prebuilt X-c2-na-X
 1050    1051    1052    1053         9       180.000      15.16700    2     ; C-C-C-C, prebuilt X-ca-ca-X
 1050    1051    1052    1118         9       180.000      15.16700    2     ; C-C-C-H, prebuilt X-ca-ca-X
 1050    1055    1054    1053         9       180.000      15.16700    2     ; C-C-C-C, prebuilt X-ca-ca-X
 1050    1055    1054    1120         9       180.000      15.16700    2     ; C-C-C-H, prebuilt X-ca-ca-X
 1051    1050    1048    1111         9       180.000       1.25520    2     ; C-C-N-C, prebuilt X-ca-na-X
 1051    1050    1055    1054         9       180.000      15.16700    2     ; C-C-C-C, prebuilt X-ca-ca-X
 1051    1050    1055    1119         9       180.000      15.16700    2     ; C-C-C-H, prebuilt X-ca-ca-X
 1051    1052    1053    1054         9       180.000      15.16700    2     ; C-C-C-C, prebuilt X-ca-ca-X
 1051    1052    1053    1056         9       180.000      15.16700    2     ; C-C-C-N, prebuilt X-ca-ca-X
 1052    1051    1050    1055         9       180.000      15.16700    2     ; C-C-C-C, prebuilt X-ca-ca-X
 1052    1053    1054    1055         9       180.000      15.16700    2     ; C-C-C-C, prebuilt X-ca-ca-X
 1052    1053    1054    1120         9       180.000      15.16700    2     ; C-C-C-H, prebuilt X-ca-ca-X
 1052    1053    1056    1057         9       180.000       1.88280    2     ; C-C-N-C, prebuilt X-ca-n-X
 1052    1053    1056    1060         9       180.000       1.88280    2     ; C-C-N-C, prebuilt X-ca-n-X
 1053    1052    1051    1117         9       180.000      15.16700    2     ; C-C-C-H, prebuilt X-ca-ca-X
 1053    1054    1055    1119         9       180.000      15.16700    2     ; C-C-C-H, prebuilt X-ca-ca-X
 1053    1056    1057    1058         9       180.000      10.46000    2     ; C-N-C-C, prebuilt X-c-n-X
 1053    1056    1057    1081         9       180.000      10.46000    2     ; C-N-C-O, prebuilt X-c-n-X
 1053    1056    1060    1059         9       180.000      10.46000    2     ; C-N-C-C, prebuilt X-c-n-X
 1053    1056    1060    1061         9       180.000      10.46000    2     ; C-N-C-O, prebuilt X-c-n-X
 1054    1053    1052    1118         9       180.000      15.16700    2     ; C-C-C-H, prebuilt X-ca-ca-X
 1054    1053    1056    1057         9       180.000       1.88280    2     ; C-C-N-C, prebuilt X-ca-n-X
 1054    1053    1056    1060         9       180.000       1.88280    2     ; C-C-N-C, prebuilt X-ca-n-X
 1055    1050    1048    1111         9       180.000       1.25520    2     ; C-C-N-C, prebuilt X-ca-na-X
 1055    1050    1051    1117         9       180.000      15.16700    2     ; C-C-C-H, prebuilt X-ca-ca-X
 1055    1054    1053    1056         9       180.000      15.16700    2     ; C-C-C-N, prebuilt X-ca-ca-X
 1056    1053    1052    1118         9       180.000      15.16700    2     ; N-C-C-H, prebuilt X-ca-ca-X
 1056    1053    1054    1120         9       180.000      15.16700    2     ; N-C-C-H, prebuilt X-ca-ca-X
 1056    1057    1058    1059         9       180.000       4.18400    2     ; N-C-C-C, prebuilt X-c-ca-X
 1056    1057    1058    1062         9       180.000       4.18400    2     ; N-C-C-C, prebuilt X-c-ca-X
 1056    1060    1059    1058         9       180.000       4.18400    2     ; N-C-C-C, prebuilt X-c-ca-X
 1056    1060    1059    1065         9       180.000       4.18400    2     ; N-C-C-C, prebuilt X-c-ca-X
 1057    1056    1060    1059         9       180.000      10.46000    2     ; C-N-C-C, prebuilt X-c-n-X
 1057    1056    1060    1061         9       180.000      10.46000    2     ; C-N-C-O, prebuilt X-c-n-X
 1057    1058    1059    1060         9       180.000      15.16700    2     ; C-C-C-C, prebuilt X-ca-ca-X
 1057    1058    1059    1065         9       180.000      15.16700    2     ; C-C-C-C, prebuilt X-ca-ca-X
 1057    1058    1062    1063         9       180.000      15.16700    2     ; C-C-C-C, prebuilt X-ca-ca-X
 1057    1058    1062    1121         9       180.000      15.16700    2     ; C-C-C-H, prebuilt X-ca-ca-X
 1058    1057    1056    1060         9       180.000      10.46000    2     ; C-C-N-C, prebuilt X-c-n-X
 1058    1059    1060    1061         9       180.000       4.18400    2     ; C-C-C-O, prebuilt X-c-ca-X
 1058    1059    1065    1064         9       180.000      15.16700    2     ; C-C-C-C, prebuilt X-ca-ca-X
 1058    1059    1065    1123         9       180.000      15.16700    2     ; C-C-C-H, prebuilt X-ca-ca-X
 1058    1062    1063    1064         9       180.000      15.16700    2     ; C-C-C-C, prebuilt X-ca-ca-X
 1058    1062    1063    1072         9       180.000      15.16700    2     ; C-C-C-C, prebuilt X-ca-ca-X
 1059    1058    1057    1081         9       180.000       4.18400    2     ; C-C-C-O, prebuilt X-c-ca-X
 1059    1058    1062    1063         9       180.000      15.16700    2     ; C-C-C-C, prebuilt X-ca-ca-X
 1059    1058    1062    1121         9       180.000      15.16700    2     ; C-C-C-H, prebuilt X-ca-ca-X
 1059    1065    1064    1063         9       180.000      15.16700    2     ; C-C-C-C, prebuilt X-ca-ca-X
 1059    1065    1064    1122         9       180.000      15.16700    2     ; C-C-C-H, prebuilt X-ca-ca-X
 1060    1056    1057    1081         9       180.000      10.46000    2     ; C-N-C-O, prebuilt X-c-n-X
 1060    1059    1058    1062         9       180.000      15.16700    2     ; C-C-C-C, prebuilt X-ca-ca-X
 1060    1059    1065    1064         9       180.000      15.16700    2     ; C-C-C-C, prebuilt X-ca-ca-X
 1060    1059    1065    1123         9       180.000      15.16700    2     ; C-C-C-H, prebuilt X-ca-ca-X
 1061    1060    1059    1065         9       180.000       4.18400    2     ; O-C-C-C, prebuilt X-c-ca-X
 1062    1058    1057    1081         9       180.000       4.18400    2     ; C-C-C-O, prebuilt X-c-ca-X
 1062    1058    1059    1065         9       180.000      15.16700    2     ; C-C-C-C, prebuilt X-ca-ca-X
 1062    1063    1064    1065         9       180.000      15.16700    2     ; C-C-C-C, prebuilt X-ca-ca-X
 1062    1063    1064    1122         9       180.000      15.16700    2     ; C-C-C-H, prebuilt X-ca-ca-X
 1062    1063    1072    1066         9         0.000       0.00000    2     ; C-C-C-C, prebuilt X-c3-ca-X
 1062    1063    1072    1073         9         0.000       0.00000    2     ; C-C-C-C, prebuilt X-c3-ca-X
 1062    1063    1072    1077         9         0.000       0.00000    2     ; C-C-C-C, prebuilt X-c3-ca-X
 1063    1064    1065    1123         9       180.000      15.16700    2     ; C-C-C-H, prebuilt X-ca-ca-X
 1063    1072    1066    1067         9         0.000       0.00000    2     ; C-C-C-C, prebuilt X-c3-ca-X
 1063    1072    1066    1069         9         0.000       0.00000    2     ; C-C-C-C, prebuilt X-c3-ca-X
 1063    1072    1073    1074         9         0.000       0.65084    3     ; C-C-C-F, prebuilt X-c3-c3-X
 1063    1072    1073    1075         9         0.000       0.65084    3     ; C-C-C-F, prebuilt X-c3-c3-X
 1063    1072    1073    1076         9         0.000       0.65084    3     ; C-C-C-F, prebuilt X-c3-c3-X
 1063    1072    1077    1078         9         0.000       0.65084    3     ; C-C-C-F, prebuilt X-c3-c3-X
 1063    1072    1077    1079         9         0.000       0.65084    3     ; C-C-C-F, prebuilt X-c3-c3-X
 1063    1072    1077    1080         9         0.000       0.65084    3     ; C-C-C-F, prebuilt X-c3-c3-X
 1064    1063    1062    1121         9       180.000      15.16700    2     ; C-C-C-H, prebuilt X-ca-ca-X
 1064    1063    1072    1066         9         0.000       0.00000    2     ; C-C-C-C, prebuilt X-c3-ca-X
 1064    1063    1072    1073         9         0.000       0.00000    2     ; C-C-C-C, prebuilt X-c3-ca-X
 1064    1063    1072    1077         9         0.000       0.00000    2     ; C-C-C-C, prebuilt X-c3-ca-X
 1065    1064    1063    1072         9       180.000      15.16700    2     ; C-C-C-C, prebuilt X-ca-ca-X
 1066    1067    1068    1070         9       180.000      15.16700    2     ; C-C-C-C, prebuilt X-ca-ca-X
 1066    1067    1068    1082         9       180.000      15.16700    2     ; C-C-C-C, prebuilt X-ca-ca-X
 1066    1069    1071    1070         9       180.000      15.16700    2     ; C-C-C-C, prebuilt X-ca-ca-X
 1066    1069    1071    1126         9       180.000      15.16700    2     ; C-C-C-H, prebuilt X-ca-ca-X
 1066    1072    1073    1074         9         0.000       0.65084    3     ; C-C-C-F, prebuilt X-c3-c3-X
 1066    1072    1073    1075         9         0.000       0.65084    3     ; C-C-C-F, prebuilt X-c3-c3-X
 1066    1072    1073    1076         9         0.000       0.65084    3     ; C-C-C-F, prebuilt X-c3-c3-X
 1066    1072    1077    1078         9         0.000       0.65084    3     ; C-C-C-F, prebuilt X-c3-c3-X
 1066    1072    1077    1079         9         0.000       0.65084    3     ; C-C-C-F, prebuilt X-c3-c3-X
 1066    1072    1077    1080         9         0.000       0.65084    3     ; C-C-C-F, prebuilt X-c3-c3-X
 1067    1066    1069    1071         9       180.000      15.16700    2     ; C-C-C-C, prebuilt X-ca-ca-X
 1067    1066    1069    1124         9       180.000      15.16700    2     ; C-C-C-H, prebuilt X-ca-ca-X
 1067    1066    1072    1073         9         0.000       0.00000    2     ; C-C-C-C, prebuilt X-c3-ca-X
 1067    1066    1072    1077         9         0.000       0.00000    2     ; C-C-C-C, prebuilt X-c3-ca-X
 1067    1068    1070    1071         9       180.000      15.16700    2     ; C-C-C-C, prebuilt X-ca-ca-X
 1067    1068    1070    1084         9       180.000      15.16700    2     ; C-C-C-C, prebuilt X-ca-ca-X
 1067    1068    1082    1083         9       180.000       4.18400    2     ; C-C-C-N, prebuilt X-c-ca-X
 1067    1068    1082    1127         9       180.000       4.18400    2     ; C-C-C-O, prebuilt X-c-ca-X
 1068    1067    1066    1069         9       180.000      15.16700    2     ; C-C-C-C, prebuilt X-ca-ca-X
 1068    1067    1066    1072         9       180.000      15.16700    2     ; C-C-C-C, prebuilt X-ca-ca-X
 1068    1070    1071    1069         9       180.000      15.16700    2     ; C-C-C-C, prebuilt X-ca-ca-X
 1068    1070    1071    1126         9       180.000      15.16700    2     ; C-C-C-H, prebuilt X-ca-ca-X
 1068    1070    1084    1083         9       180.000       4.18400    2     ; C-C-C-N, prebuilt X-c-ca-X
 1068    1070    1084    1085         9       180.000       4.18400    2     ; C-C-C-O, prebuilt X-c-ca-X
 1068    1082    1083    1084         9       180.000      10.46000    2     ; C-C-N-C, prebuilt X-c-n-X
 1068    1082    1083    1199         9       180.000      10.46000    2     ; C-C-N-C, prebuilt X-c-n-X
 1069    1066    1067    1125         9       180.000      15.16700    2     ; C-C-C-H, prebuilt X-ca-ca-X
 1069    1066    1072    1073         9         0.000       0.00000    2     ; C-C-C-C, prebuilt X-c3-ca-X
 1069    1066    1072    1077         9         0.000       0.00000    2     ; C-C-C-C, prebuilt X-c3-ca-X
 1069    1071    1070    1084         9       180.000      15.16700    2     ; C-C-C-C, prebuilt X-ca-ca-X
 1070    1068    1067    1125         9       180.000      15.16700    2     ; C-C-C-H, prebuilt X-ca-ca-X
 1070    1068    1082    1083         9       180.000       4.18400    2     ; C-C-C-N, prebuilt X-c-ca-X
 1070    1068    1082    1127         9       180.000       4.18400    2     ; C-C-C-O, prebuilt X-c-ca-X
 1070    1071    1069    1124         9       180.000      15.16700    2     ; C-C-C-H, prebuilt X-ca-ca-X
 1070    1084    1083    1082         9       180.000      10.46000    2     ; C-C-N-C, prebuilt X-c-n-X
 1070    1084    1083    1199         9       180.000      10.46000    2     ; C-C-N-C, prebuilt X-c-n-X
 1071    1069    1066    1072         9       180.000      15.16700    2     ; C-C-C-C, prebuilt X-ca-ca-X
 1071    1070    1068    1082         9       180.000      15.16700    2     ; C-C-C-C, prebuilt X-ca-ca-X
 1071    1070    1084    1083         9       180.000       4.18400    2     ; C-C-C-N, prebuilt X-c-ca-X
 1071    1070    1084    1085         9       180.000       4.18400    2     ; C-C-C-O, prebuilt X-c-ca-X
 1072    1063    1062    1121         9       180.000      15.16700    2     ; C-C-C-H, prebuilt X-ca-ca-X
 1072    1063    1064    1122         9       180.000      15.16700    2     ; C-C-C-H, prebuilt X-ca-ca-X
 1072    1066    1067    1125         9       180.000      15.16700    2     ; C-C-C-H, prebuilt X-ca-ca-X
 1072    1066    1069    1124         9       180.000      15.16700    2     ; C-C-C-H, prebuilt X-ca-ca-X
 1073    1072    1077    1078         9         0.000       0.65084    3     ; C-C-C-F, prebuilt X-c3-c3-X
 1073    1072    1077    1079         9         0.000       0.65084    3     ; C-C-C-F, prebuilt X-c3-c3-X
 1073    1072    1077    1080         9         0.000       0.65084    3     ; C-C-C-F, prebuilt X-c3-c3-X
 1074    1073    1072    1077         9         0.000       0.65084    3     ; F-C-C-C, prebuilt X-c3-c3-X
 1075    1073    1072    1077         9         0.000       0.65084    3     ; F-C-C-C, prebuilt X-c3-c3-X
 1076    1073    1072    1077         9         0.000       0.65084    3     ; F-C-C-C, prebuilt X-c3-c3-X
 1082    1068    1067    1125         9       180.000      15.16700    2     ; C-C-C-H, prebuilt X-ca-ca-X
 1082    1068    1070    1084         9       180.000      15.16700    2     ; C-C-C-C, prebuilt X-ca-ca-X
 1082    1083    1084    1085         9       180.000      10.46000    2     ; C-N-C-O, prebuilt X-c-n-X
 1082    1083    1199    1198         9       180.000       1.88280    2     ; C-N-C-C, prebuilt X-ca-n-X
 1082    1083    1199    1200         9       180.000       1.88280    2     ; C-N-C-C, prebuilt X-ca-n-X
 1083    1199    1198    1197         9       180.000      15.16700    2     ; N-C-C-C, prebuilt X-ca-ca-X
 1083    1199    1198    1226         9       180.000      15.16700    2     ; N-C-C-H, prebuilt X-ca-ca-X
 1083    1199    1200    1201         9       180.000      15.16700    2     ; N-C-C-C, prebuilt X-ca-ca-X
 1083    1199    1200    1228         9       180.000      15.16700    2     ; N-C-C-H, prebuilt X-ca-ca-X
 1084    1070    1071    1126         9       180.000      15.16700    2     ; C-C-C-H, prebuilt X-ca-ca-X
 1084    1083    1082    1127         9       180.000      10.46000    2     ; C-N-C-O, prebuilt X-c-n-X
 1084    1083    1199    1198         9       180.000       1.88280    2     ; C-N-C-C, prebuilt X-ca-n-X
 1084    1083    1199    1200         9       180.000       1.88280    2     ; C-N-C-C, prebuilt X-ca-n-X
 1085    1084    1083    1199         9       180.000      10.46000    2     ; O-C-N-C, prebuilt X-c-n-X
 1086    1049    1047    1112         9       180.000       2.61500    2     ; C-C-N-C, prebuilt X-c2-na-X
 1086    1049    1047    1138         9       180.000       2.61500    2     ; C-C-N-C, prebuilt X-c2-na-X
 1086    1049    1048    1111         9       180.000       2.61500    2     ; C-C-N-C, prebuilt X-c2-na-X
 1086    1087    1089    1091         9       180.000      15.16700    2     ; C-C-C-C, prebuilt X-ca-ca-X
 1086    1087    1089    1129         9       180.000      15.16700    2     ; C-C-C-H, prebuilt X-ca-ca-X
 1086    1088    1090    1091         9       180.000      15.16700    2     ; C-C-C-C, prebuilt X-ca-ca-X
 1086    1088    1090    1136         9       180.000      15.16700    2     ; C-C-C-H, prebuilt X-ca-ca-X
 1087    1086    1088    1090         9       180.000      15.16700    2     ; C-C-C-C, prebuilt X-ca-ca-X
 1087    1086    1088    1130         9       180.000      15.16700    2     ; C-C-C-H, prebuilt X-ca-ca-X
 1087    1089    1091    1090         9       180.000      15.16700    2     ; C-C-C-C, prebuilt X-ca-ca-X
 1087    1089    1091    1092         9       180.000      15.16700    2     ; C-C-C-C, prebuilt X-ca-ca-X
 1088    1086    1087    1089         9       180.000      15.16700    2     ; C-C-C-C, prebuilt X-ca-ca-X
 1088    1086    1087    1128         9       180.000      15.16700    2     ; C-C-C-H, prebuilt X-ca-ca-X
 1088    1090    1091    1089         9       180.000      15.16700    2     ; C-C-C-C, prebuilt X-ca-ca-X
 1088    1090    1091    1092         9       180.000      15.16700    2     ; C-C-C-C, prebuilt X-ca-ca-X
 1089    1091    1090    1136         9       180.000      15.16700    2     ; C-C-C-H, prebuilt X-ca-ca-X
 1089    1091    1092    1093         9       180.000       2.92880    2     ; C-C-C-N, prebuilt X-c2-ca-X
 1089    1091    1092    1094         9       180.000       2.92880    2     ; C-C-C-N, prebuilt X-c2-ca-X
 1090    1091    1089    1129         9       180.000      15.16700    2     ; C-C-C-H, prebuilt X-ca-ca-X
 1090    1091    1092    1093         9       180.000       2.92880    2     ; C-C-C-N, prebuilt X-c2-ca-X
 1090    1091    1092    1094         9       180.000       2.92880    2     ; C-C-C-N, prebuilt X-c2-ca-X
 1091    1089    1087    1128         9       180.000      15.16700    2     ; C-C-C-H, prebuilt X-ca-ca-X
 1091    1090    1088    1130         9       180.000      15.16700    2     ; C-C-C-H, prebuilt X-ca-ca-X
 1091    1092    1093    1095         9       180.000       2.61500    2     ; C-C-N-C, prebuilt X-c2-na-X
 1091    1092    1093    1101         9       180.000       2.61500    2     ; C-C-N-C, prebuilt X-c2-na-X
 1091    1092    1094    1096         9       180.000       2.61500    2     ; C-C-N-C, prebuilt X-c2-na-X
 1091    1092    1094    1097         9       180.000       2.61500    2     ; C-C-N-C, prebuilt X-c2-na-X
 1092    1091    1089    1129         9       180.000      15.16700    2     ; C-C-C-H, prebuilt X-ca-ca-X
 1092    1091    1090    1136         9       180.000      15.16700    2     ; C-C-C-H, prebuilt X-ca-ca-X
 1092    1093    1095    1096         9       180.000       2.61500    2     ; C-N-C-C, prebuilt X-c2-na-X
 1092    1093    1095    1135         9       180.000       2.61500    2     ; C-N-C-H, prebuilt X-c2-na-X
 1092    1093    1101    1102         9       180.000       1.25520    2     ; C-N-C-C, prebuilt X-ca-na-X
 1092    1093    1101    1106         9       180.000       1.25520    2     ; C-N-C-C, prebuilt X-ca-na-X
 1092    1094    1096    1095         9       180.000       2.61500    2     ; C-N-C-C, prebuilt X-c2-na-X
 1092    1094    1096    1107         9       180.000       2.61500    2     ; C-N-C-C, prebuilt X-c2-na-X
 1092    1094    1097    1098         9         0.000       0.00000    2     ; C-N-C-H, prebuilt X-c3-na-X
 1092    1094    1097    1099         9         0.000       0.00000    2     ; C-N-C-H, prebuilt X-c3-na-X
 1092    1094    1097    1100         9         0.000       0.00000    2     ; C-N-C-H, prebuilt X-c3-na-X
 1093    1092    1094    1096         9       180.000       2.61500    2     ; N-C-N-C, prebuilt X-c2-na-X
 1093    1092    1094    1097         9       180.000       2.61500    2     ; N-C-N-C, prebuilt X-c2-na-X
 1093    1095    1096    1094         9       180.000      27.82360    2     ; N-C-C-N, prebuilt X-c2-c2-X
 1093    1095    1096    1107         9       180.000      27.82360    2     ; N-C-C-C, prebuilt X-c2-c2-X
 1093    1101    1102    1103         9       180.000      15.16700    2     ; N-C-C-C, prebuilt X-ca-ca-X
 1093    1101    1102    1132         9       180.000      15.16700    2     ; N-C-C-H, prebuilt X-ca-ca-X
 1093    1101    1106    1105         9       180.000      15.16700    2     ; N-C-C-C, prebuilt X-ca-ca-X
 1093    1101    1106    1134         9       180.000      15.16700    2     ; N-C-C-H, prebuilt X-ca-ca-X
 1094    1092    1093    1095         9       180.000       2.61500    2     ; N-C-N-C, prebuilt X-c2-na-X
 1094    1092    1093    1101         9       180.000       2.61500    2     ; N-C-N-C, prebuilt X-c2-na-X
 1094    1096    1095    1135         9       180.000      27.82360    2     ; N-C-C-H, prebuilt X-c2-c2-X
 1094    1096    1107    1108         9         0.000       0.00000    2     ; N-C-C-F, prebuilt X-c2-c3-X
 1094    1096    1107    1109         9         0.000       0.00000    2     ; N-C-C-F, prebuilt X-c2-c3-X
 1094    1096    1107    1110         9         0.000       0.00000    2     ; N-C-C-F, prebuilt X-c2-c3-X
 1095    1093    1101    1102         9       180.000       1.25520    2     ; C-N-C-C, prebuilt X-ca-na-X
 1095    1093    1101    1106         9       180.000       1.25520    2     ; C-N-C-C, prebuilt X-ca-na-X
 1095    1096    1094    1097         9       180.000       2.61500    2     ; C-C-N-C, prebuilt X-c2-na-X
 1095    1096    1107    1108         9         0.000       0.00000    2     ; C-C-C-F, prebuilt X-c2-c3-X
 1095    1096    1107    1109         9         0.000       0.00000    2     ; C-C-C-F, prebuilt X-c2-c3-X
 1095    1096    1107    1110         9         0.000       0.00000    2     ; C-C-C-F, prebuilt X-c2-c3-X
 1096    1094    1097    1098         9         0.000       0.00000    2     ; C-N-C-H, prebuilt X-c3-na-X
 1096    1094    1097    1099         9         0.000       0.00000    2     ; C-N-C-H, prebuilt X-c3-na-X
 1096    1094    1097    1100         9         0.000       0.00000    2     ; C-N-C-H, prebuilt X-c3-na-X
 1096    1095    1093    1101         9       180.000       2.61500    2     ; C-C-N-C, prebuilt X-c2-na-X
 1097    1094    1096    1107         9       180.000       2.61500    2     ; C-N-C-C, prebuilt X-c2-na-X
 1101    1093    1095    1135         9       180.000       2.61500    2     ; C-N-C-H, prebuilt X-c2-na-X
 1101    1102    1103    1104         9       180.000      15.16700    2     ; C-C-C-C, prebuilt X-ca-ca-X
 1101    1102    1103    1131         9       180.000      15.16700    2     ; C-C-C-H, prebuilt X-ca-ca-X
 1101    1106    1105    1104         9       180.000      15.16700    2     ; C-C-C-C, prebuilt X-ca-ca-X
 1101    1106    1105    1133         9       180.000      15.16700    2     ; C-C-C-H, prebuilt X-ca-ca-X
 1102    1101    1106    1105         9       180.000      15.16700    2     ; C-C-C-C, prebuilt X-ca-ca-X
 1102    1101    1106    1134         9       180.000      15.16700    2     ; C-C-C-H, prebuilt X-ca-ca-X
 1102    1103    1104    1105         9       180.000      15.16700    2     ; C-C-C-C, prebuilt X-ca-ca-X
 1103    1102    1101    1106         9       180.000      15.16700    2     ; C-C-C-C, prebuilt X-ca-ca-X
 1103    1104    1105    1106         9       180.000      15.16700    2     ; C-C-C-C, prebuilt X-ca-ca-X
 1103    1104    1105    1133         9       180.000      15.16700    2     ; C-C-C-H, prebuilt X-ca-ca-X
 1104    1103    1102    1132         9       180.000      15.16700    2     ; C-C-C-H, prebuilt X-ca-ca-X
 1104    1105    1106    1134         9       180.000      15.16700    2     ; C-C-C-H, prebuilt X-ca-ca-X
 1105    1104    1103    1131         9       180.000      15.16700    2     ; C-C-C-H, prebuilt X-ca-ca-X
 1106    1101    1102    1132         9       180.000      15.16700    2     ; C-C-C-H, prebuilt X-ca-ca-X
 1107    1096    1095    1135         9       180.000      27.82360    2     ; C-C-C-H, prebuilt X-c2-c2-X
 1111    1112    1047    1138         9       180.000       2.61500    2     ; C-C-N-C, prebuilt X-c2-na-X
 1111    1112    1113    1114         9         0.000       0.00000    2     ; C-C-C-F, prebuilt X-c2-c3-X
 1111    1112    1113    1115         9         0.000       0.00000    2     ; C-C-C-F, prebuilt X-c2-c3-X
 1111    1112    1113    1137         9         0.000       0.00000    2     ; C-C-C-F, prebuilt X-c2-c3-X
 1112    1047    1138    1139         9         0.000       0.00000    2     ; C-N-C-H, prebuilt X-c3-na-X
 1112    1047    1138    1140         9         0.000       0.00000    2     ; C-N-C-H, prebuilt X-c3-na-X
 1112    1047    1138    1141         9         0.000       0.00000    2     ; C-N-C-H, prebuilt X-c3-na-X
 1113    1112    1047    1138         9       180.000       2.61500    2     ; C-C-N-C, prebuilt X-c2-na-X
 1113    1112    1111    1116         9       180.000      27.82360    2     ; C-C-C-H, prebuilt X-c2-c2-X
 1117    1051    1052    1118         9       180.000      15.16700    2     ; H-C-C-H, prebuilt X-ca-ca-X
 1119    1055    1054    1120         9       180.000      15.16700    2     ; H-C-C-H, prebuilt X-ca-ca-X
 1122    1064    1065    1123         9       180.000      15.16700    2     ; H-C-C-H, prebuilt X-ca-ca-X
 1124    1069    1071    1126         9       180.000      15.16700    2     ; H-C-C-H, prebuilt X-ca-ca-X
 1127    1082    1083    1199         9       180.000      10.46000    2     ; O-C-N-C, prebuilt X-c-n-X
 1128    1087    1089    1129         9       180.000      15.16700    2     ; H-C-C-H, prebuilt X-ca-ca-X
 1130    1088    1090    1136         9       180.000      15.16700    2     ; H-C-C-H, prebuilt X-ca-ca-X
 1131    1103    1102    1132         9       180.000      15.16700    2     ; H-C-C-H, prebuilt X-ca-ca-X
 1133    1105    1106    1134         9       180.000      15.16700    2     ; H-C-C-H, prebuilt X-ca-ca-X
 1142    1144    1143    1145         9       180.000       2.61500    2     ; N-C-N-C, prebuilt X-c2-na-X
 1142    1144    1143    1206         9       180.000       2.61500    2     ; N-C-N-C, prebuilt X-c2-na-X
 1142    1144    1181    1182         9       180.000       2.92880    2     ; N-C-C-C, prebuilt X-c2-ca-X
 1142    1144    1181    1183         9       180.000       2.92880    2     ; N-C-C-C, prebuilt X-c2-ca-X
 1142    1207    1206    1143         9       180.000      27.82360    2     ; N-C-C-N, prebuilt X-c2-c2-X
 1142    1207    1206    1211         9       180.000      27.82360    2     ; N-C-C-H, prebuilt X-c2-c2-X
 1142    1207    1208    1209         9         0.000       0.00000    2     ; N-C-C-F, prebuilt X-c2-c3-X
 1142    1207    1208    1210         9         0.000       0.00000    2     ; N-C-C-F, prebuilt X-c2-c3-X
 1142    1207    1208    1232         9         0.000       0.00000    2     ; N-C-C-F, prebuilt X-c2-c3-X
 1143    1144    1142    1207         9       180.000       2.61500    2     ; N-C-N-C, prebuilt X-c2-na-X
 1143    1144    1142    1233         9       180.000       2.61500    2     ; N-C-N-C, prebuilt X-c2-na-X
 1143    1144    1181    1182         9       180.000       2.92880    2     ; N-C-C-C, prebuilt X-c2-ca-X
 1143    1144    1181    1183         9       180.000       2.92880    2     ; N-C-C-C, prebuilt X-c2-ca-X
 1143    1145    1146    1147         9       180.000      15.16700    2     ; N-C-C-C, prebuilt X-ca-ca-X
 1143    1145    1146    1212         9       180.000      15.16700    2     ; N-C-C-H, prebuilt X-ca-ca-X
 1143    1145    1150    1149         9       180.000      15.16700    2     ; N-C-C-C, prebuilt X-ca-ca-X
 1143    1145    1150    1214         9       180.000      15.16700    2     ; N-C-C-H, prebuilt X-ca-ca-X
 1143    1206    1207    1208         9       180.000      27.82360    2     ; N-C-C-C, prebuilt X-c2-c2-X
 1144    1142    1207    1206         9       180.000       2.61500    2     ; C-N-C-C, prebuilt X-c2-na-X
 1144    1142    1207    1208         9       180.000       2.61500    2     ; C-N-C-C, prebuilt X-c2-na-X
 1144    1142    1233    1234         9         0.000       0.00000    2     ; C-N-C-H, prebuilt X-c3-na-X
 1144    1142    1233    1235         9         0.000       0.00000    2     ; C-N-C-H, prebuilt X-c3-na-X
 1144    1142    1233    1236         9         0.000       0.00000    2     ; C-N-C-H, prebuilt X-c3-na-X
 1144    1143    1145    1146         9       180.000       1.25520    2     ; C-N-C-C, prebuilt X-ca-na-X
 1144    1143    1145    1150         9       180.000       1.25520    2     ; C-N-C-C, prebuilt X-ca-na-X
 1144    1143    1206    1207         9       180.000       2.61500    2     ; C-N-C-C, prebuilt X-c2-na-X
 1144    1143    1206    1211         9       180.000       2.61500    2     ; C-N-C-H, prebuilt X-c2-na-X
 1144    1181    1182    1184         9       180.000      15.16700    2     ; C-C-C-C, prebuilt X-ca-ca-X
 1144    1181    1182    1223         9       180.000      15.16700    2     ; C-C-C-H, prebuilt X-ca-ca-X
 1144    1181    1183    1185         9       180.000      15.16700    2     ; C-C-C-C, prebuilt X-ca-ca-X
 1144    1181    1183    1225         9       180.000      15.16700    2     ; C-C-C-H, prebuilt X-ca-ca-X
 1145    1143    1144    1181         9       180.000       2.61500    2     ; C-N-C-C, prebuilt X-c2-na-X
 1145    1143    1206    1207         9       180.000       2.61500    2     ; C-N-C-C, prebuilt X-c2-na-X
 1145    1143    1206    1211         9       180.000       2.61500    2     ; C-N-C-H, prebuilt X-c2-na-X
 1145    1146    1147    1148         9       180.000      15.16700    2     ; C-C-C-C, prebuilt X-ca-ca-X
 1145    1146    1147    1213         9       180.000      15.16700    2     ; C-C-C-H, prebuilt X-ca-ca-X
 1145    1150    1149    1148         9       180.000      15.16700    2     ; C-C-C-C, prebuilt X-ca-ca-X
 1145    1150    1149    1215         9       180.000      15.16700    2     ; C-C-C-H, prebuilt X-ca-ca-X
 1146    1145    1143    1206         9       180.000       1.25520    2     ; C-C-N-C, prebuilt X-ca-na-X
 1146    1145    1150    1149         9       180.000      15.16700    2     ; C-C-C-C, prebuilt X-ca-ca-X
 1146    1145    1150    1214         9       180.000      15.16700    2     ; C-C-C-H, prebuilt X-ca-ca-X
 1146    1147    1148    1149         9       180.000      15.16700    2     ; C-C-C-C, prebuilt X-ca-ca-X
 1146    1147    1148    1151         9       180.000      15.16700    2     ; C-C-C-N, prebuilt X-ca-ca-X
 1147    1146    1145    1150         9       180.000      15.16700    2     ; C-C-C-C, prebuilt X-ca-ca-X
 1147    1148    1149    1150         9       180.000      15.16700    2     ; C-C-C-C, prebuilt X-ca-ca-X
 1147    1148    1149    1215         9       180.000      15.16700    2     ; C-C-C-H, prebuilt X-ca-ca-X
 1147    1148    1151    1152         9       180.000       1.88280    2     ; C-C-N-C, prebuilt X-ca-n-X
 1147    1148    1151    1155         9       180.000       1.88280    2     ; C-C-N-C, prebuilt X-ca-n-X
 1148    1147    1146    1212         9       180.000      15.16700    2     ; C-C-C-H, prebuilt X-ca-ca-X
 1148    1149    1150    1214         9       180.000      15.16700    2     ; C-C-C-H, prebuilt X-ca-ca-X
 1148    1151    1152    1153         9       180.000      10.46000    2     ; C-N-C-C, prebuilt X-c-n-X
 1148    1151    1152    1176         9       180.000      10.46000    2     ; C-N-C-O, prebuilt X-c-n-X
 1148    1151    1155    1154         9       180.000      10.46000    2     ; C-N-C-C, prebuilt X-c-n-X
 1148    1151    1155    1156         9       180.000      10.46000    2     ; C-N-C-O, prebuilt X-c-n-X
 1149    1148    1147    1213         9       180.000      15.16700    2     ; C-C-C-H, prebuilt X-ca-ca-X
 1149    1148    1151    1152         9       180.000       1.88280    2     ; C-C-N-C, prebuilt X-ca-n-X
 1149    1148    1151    1155         9       180.000       1.88280    2     ; C-C-N-C, prebuilt X-ca-n-X
 1150    1145    1143    1206         9       180.000       1.25520    2     ; C-C-N-C, prebuilt X-ca-na-X
 1150    1145    1146    1212         9       180.000      15.16700    2     ; C-C-C-H, prebuilt X-ca-ca-X
 1150    1149    1148    1151         9       180.000      15.16700    2     ; C-C-C-N, prebuilt X-ca-ca-X
 1151    1148    1147    1213         9       180.000      15.16700    2     ; N-C-C-H, prebuilt X-ca-ca-X
 1151    1148    1149    1215         9       180.000      15.16700    2     ; N-C-C-H, prebuilt X-ca-ca-X
 1151    1152    1153    1154         9       180.000       4.18400    2     ; N-C-C-C, prebuilt X-c-ca-X
 1151    1152    1153    1157         9       180.000       4.18400    2     ; N-C-C-C, prebuilt X-c-ca-X
 1151    1155    1154    1153         9       180.000       4.18400    2     ; N-C-C-C, prebuilt X-c-ca-X
 1151    1155    1154    1160         9       180.000       4.18400    2     ; N-C-C-C, prebuilt X-c-ca-X
 1152    1151    1155    1154         9       180.000      10.46000    2     ; C-N-C-C, prebuilt X-c-n-X
 1152    1151    1155    1156         9       180.000      10.46000    2     ; C-N-C-O, prebuilt X-c-n-X
 1152    1153    1154    1155         9       180.000      15.16700    2     ; C-C-C-C, prebuilt X-ca-ca-X
 1152    1153    1154    1160         9       180.000      15.16700    2     ; C-C-C-C, prebuilt X-ca-ca-X
 1152    1153    1157    1158         9       180.000      15.16700    2     ; C-C-C-C, prebuilt X-ca-ca-X
 1152    1153    1157    1216         9       180.000      15.16700    2     ; C-C-C-H, prebuilt X-ca-ca-X
 1153    1152    1151    1155         9       180.000      10.46000    2     ; C-C-N-C, prebuilt X-c-n-X
 1153    1154    1155    1156         9       180.000       4.18400    2     ; C-C-C-O, prebuilt X-c-ca-X
 1153    1154    1160    1159         9       180.000      15.16700    2     ; C-C-C-C, prebuilt X-ca-ca-X
 1153    1154    1160    1218         9       180.000      15.16700    2     ; C-C-C-H, prebuilt X-ca-ca-X
 1153    1157    1158    1159         9       180.000      15.16700    2     ; C-C-C-C, prebuilt X-ca-ca-X
 1153    1157    1158    1167         9       180.000      15.16700    2     ; C-C-C-C, prebuilt X-ca-ca-X
 1154    1153    1152    1176         9       180.000       4.18400    2     ; C-C-C-O, prebuilt X-c-ca-X
 1154    1153    1157    1158         9       180.000      15.16700    2     ; C-C-C-C, prebuilt X-ca-ca-X
 1154    1153    1157    1216         9       180.000      15.16700    2     ; C-C-C-H, prebuilt X-ca-ca-X
 1154    1160    1159    1158         9       180.000      15.16700    2     ; C-C-C-C, prebuilt X-ca-ca-X
 1154    1160    1159    1217         9       180.000      15.16700    2     ; C-C-C-H, prebuilt X-ca-ca-X
 1155    1151    1152    1176         9       180.000      10.46000    2     ; C-N-C-O, prebuilt X-c-n-X
 1155    1154    1153    1157         9       180.000      15.16700    2     ; C-C-C-C, prebuilt X-ca-ca-X
 1155    1154    1160    1159         9       180.000      15.16700    2     ; C-C-C-C, prebuilt X-ca-ca-X
 1155    1154    1160    1218         9       180.000      15.16700    2     ; C-C-C-H, prebuilt X-ca-ca-X
 1156    1155    1154    1160         9       180.000       4.18400    2     ; O-C-C-C, prebuilt X-c-ca-X
 1157    1153    1152    1176         9       180.000       4.18400    2     ; C-C-C-O, prebuilt X-c-ca-X
 1157    1153    1154    1160         9       180.000      15.16700    2     ; C-C-C-C, prebuilt X-ca-ca-X
 1157    1158    1159    1160         9       180.000      15.16700    2     ; C-C-C-C, prebuilt X-ca-ca-X
 1157    1158    1159    1217         9       180.000      15.16700    2     ; C-C-C-H, prebuilt X-ca-ca-X
 1157    1158    1167    1161         9         0.000       0.00000    2     ; C-C-C-C, prebuilt X-c3-ca-X
 1157    1158    1167    1168         9         0.000       0.00000    2     ; C-C-C-C, prebuilt X-c3-ca-X
 1157    1158    1167    1172         9         0.000       0.00000    2     ; C-C-C-C, prebuilt X-c3-ca-X
 1158    1159    1160    1218         9       180.000      15.16700    2     ; C-C-C-H, prebuilt X-ca-ca-X
 1158    1167    1161    1162         9         0.000       0.00000    2     ; C-C-C-C, prebuilt X-c3-ca-X
 1158    1167    1161    1164         9         0.000       0.00000    2     ; C-C-C-C, prebuilt X-c3-ca-X
 1158    1167    1168    1169         9         0.000       0.65084    3     ; C-C-C-F, prebuilt X-c3-c3-X
 1158    1167    1168    1170         9         0.000       0.65084    3     ; C-C-C-F, prebuilt X-c3-c3-X
 1158    1167    1168    1171         9         0.000       0.65084    3     ; C-C-C-F, prebuilt X-c3-c3-X
 1158    1167    1172    1173         9         0.000       0.65084    3     ; C-C-C-F, prebuilt X-c3-c3-X
 1158    1167    1172    1174         9         0.000       0.65084    3     ; C-C-C-F, prebuilt X-c3-c3-X
 1158    1167    1172    1175         9         0.000       0.65084    3     ; C-C-C-F, prebuilt X-c3-c3-X
 1159    1158    1157    1216         9       180.000      15.16700    2     ; C-C-C-H, prebuilt X-ca-ca-X
 1159    1158    1167    1161         9         0.000       0.00000    2     ; C-C-C-C, prebuilt X-c3-ca-X
 1159    1158    1167    1168         9         0.000       0.00000    2     ; C-C-C-C, prebuilt X-c3-ca-X
 1159    1158    1167    1172         9         0.000       0.00000    2     ; C-C-C-C, prebuilt X-c3-ca-X
 1160    1159    1158    1167         9       180.000      15.16700    2     ; C-C-C-C, prebuilt X-ca-ca-X
 1161    1162    1163    1165         9       180.000      15.16700    2     ; C-C-C-C, prebuilt X-ca-ca-X
 1161    1162    1163    1177         9       180.000      15.16700    2     ; C-C-C-C, prebuilt X-ca-ca-X
 1161    1164    1166    1165         9       180.000      15.16700    2     ; C-C-C-C, prebuilt X-ca-ca-X
 1161    1164    1166    1221         9       180.000      15.16700    2     ; C-C-C-H, prebuilt X-ca-ca-X
 1161    1167    1168    1169         9         0.000       0.65084    3     ; C-C-C-F, prebuilt X-c3-c3-X
 1161    1167    1168    1170         9         0.000       0.65084    3     ; C-C-C-F, prebuilt X-c3-c3-X
 1161    1167    1168    1171         9         0.000       0.65084    3     ; C-C-C-F, prebuilt X-c3-c3-X
 1161    1167    1172    1173         9         0.000       0.65084    3     ; C-C-C-F, prebuilt X-c3-c3-X
 1161    1167    1172    1174         9         0.000       0.65084    3     ; C-C-C-F, prebuilt X-c3-c3-X
 1161    1167    1172    1175         9         0.000       0.65084    3     ; C-C-C-F, prebuilt X-c3-c3-X
 1162    1161    1164    1166         9       180.000      15.16700    2     ; C-C-C-C, prebuilt X-ca-ca-X
 1162    1161    1164    1219         9       180.000      15.16700    2     ; C-C-C-H, prebuilt X-ca-ca-X
 1162    1161    1167    1168         9         0.000       0.00000    2     ; C-C-C-C, prebuilt X-c3-ca-X
 1162    1161    1167    1172         9         0.000       0.00000    2     ; C-C-C-C, prebuilt X-c3-ca-X
 1162    1163    1165    1166         9       180.000      15.16700    2     ; C-C-C-C, prebuilt X-ca-ca-X
 1162    1163    1165    1179         9       180.000      15.16700    2     ; C-C-C-C, prebuilt X-ca-ca-X
 1162    1163    1177    1178         9       180.000       4.18400    2     ; C-C-C-N, prebuilt X-c-ca-X
 1162    1163    1177    1222         9       180.000       4.18400    2     ; C-C-C-O, prebuilt X-c-ca-X
 1163    1162    1161    1164         9       180.000      15.16700    2     ; C-C-C-C, prebuilt X-ca-ca-X
 1163    1162    1161    1167         9       180.000      15.16700    2     ; C-C-C-C, prebuilt X-ca-ca-X
 1163    1165    1166    1164         9       180.000      15.16700    2     ; C-C-C-C, prebuilt X-ca-ca-X
 1163    1165    1166    1221         9       180.000      15.16700    2     ; C-C-C-H, prebuilt X-ca-ca-X
 1163    1165    1179    1178         9       180.000       4.18400    2     ; C-C-C-N, prebuilt X-c-ca-X
 1163    1165    1179    1180         9       180.000       4.18400    2     ; C-C-C-O, prebuilt X-c-ca-X
 1163    1177    1178    1179         9       180.000      10.46000    2     ; C-C-N-C, prebuilt X-c-n-X
 1163    1177    1178    1294         9       180.000      10.46000    2     ; C-C-N-C, prebuilt X-c-n-X
 1164    1161    1162    1220         9       180.000      15.16700    2     ; C-C-C-H, prebuilt X-ca-ca-X
 1164    1161    1167    1168         9         0.000       0.00000    2     ; C-C-C-C, prebuilt X-c3-ca-X
 1164    1161    1167    1172         9         0.000       0.00000    2     ; C-C-C-C, prebuilt X-c3-ca-X
 1164    1166    1165    1179         9       180.000      15.16700    2     ; C-C-C-C, prebuilt X-ca-ca-X
 1165    1163    1162    1220         9       180.000      15.16700    2     ; C-C-C-H, prebuilt X-ca-ca-X
 1165    1163    1177    1178         9       180.000       4.18400    2     ; C-C-C-N, prebuilt X-c-ca-X
 1165    1163    1177    1222         9       180.000       4.18400    2     ; C-C-C-O, prebuilt X-c-ca-X
 1165    1166    1164    1219         9       180.000      15.16700    2     ; C-C-C-H, prebuilt X-ca-ca-X
 1165    1179    1178    1177         9       180.000      10.46000    2     ; C-C-N-C, prebuilt X-c-n-X
 1165    1179    1178    1294         9       180.000      10.46000    2     ; C-C-N-C, prebuilt X-c-n-X
 1166    1164    1161    1167         9       180.000      15.16700    2     ; C-C-C-C, prebuilt X-ca-ca-X
 1166    1165    1163    1177         9       180.000      15.16700    2     ; C-C-C-C, prebuilt X-ca-ca-X
 1166    1165    1179    1178         9       180.000       4.18400    2     ; C-C-C-N, prebuilt X-c-ca-X
 1166    1165    1179    1180         9       180.000       4.18400    2     ; C-C-C-O, prebuilt X-c-ca-X
 1167    1158    1157    1216         9       180.000      15.16700    2     ; C-C-C-H, prebuilt X-ca-ca-X
 1167    1158    1159    1217         9       180.000      15.16700    2     ; C-C-C-H, prebuilt X-ca-ca-X
 1167    1161    1162    1220         9       180.000      15.16700    2     ; C-C-C-H, prebuilt X-ca-ca-X
 1167    1161    1164    1219         9       180.000      15.16700    2     ; C-C-C-H, prebuilt X-ca-ca-X
 1168    1167    1172    1173         9         0.000       0.65084    3     ; C-C-C-F, prebuilt X-c3-c3-X
 1168    1167    1172    1174         9         0.000       0.65084    3     ; C-C-C-F, prebuilt X-c3-c3-X
 1168    1167    1172    1175         9         0.000       0.65084    3     ; C-C-C-F, prebuilt X-c3-c3-X
 1169    1168    1167    1172         9         0.000       0.65084    3     ; F-C-C-C, prebuilt X-c3-c3-X
 1170    1168    1167    1172         9         0.000       0.65084    3     ; F-C-C-C, prebuilt X-c3-c3-X
 1171    1168    1167    1172         9         0.000       0.65084    3     ; F-C-C-C, prebuilt X-c3-c3-X
 1177    1163    1162    1220         9       180.000      15.16700    2     ; C-C-C-H, prebuilt X-ca-ca-X
 1177    1163    1165    1179         9       180.000      15.16700    2     ; C-C-C-C, prebuilt X-ca-ca-X
 1177    1178    1179    1180         9       180.000      10.46000    2     ; C-N-C-O, prebuilt X-c-n-X
 1177    1178    1294    1293         9       180.000       1.88280    2     ; C-N-C-C, prebuilt X-ca-n-X
 1177    1178    1294    1295         9       180.000       1.88280    2     ; C-N-C-C, prebuilt X-ca-n-X
 1178    1294    1293    1292         9       180.000      15.16700    2     ; N-C-C-C, prebuilt X-ca-ca-X
 1178    1294    1293    1321         9       180.000      15.16700    2     ; N-C-C-H, prebuilt X-ca-ca-X
 1178    1294    1295    1296         9       180.000      15.16700    2     ; N-C-C-C, prebuilt X-ca-ca-X
 1178    1294    1295    1323         9       180.000      15.16700    2     ; N-C-C-H, prebuilt X-ca-ca-X
 1179    1165    1166    1221         9       180.000      15.16700    2     ; C-C-C-H, prebuilt X-ca-ca-X
 1179    1178    1177    1222         9       180.000      10.46000    2     ; C-N-C-O, prebuilt X-c-n-X
 1179    1178    1294    1293         9       180.000       1.88280    2     ; C-N-C-C, prebuilt X-ca-n-X
 1179    1178    1294    1295         9       180.000       1.88280    2     ; C-N-C-C, prebuilt X-ca-n-X
 1180    1179    1178    1294         9       180.000      10.46000    2     ; O-C-N-C, prebuilt X-c-n-X
 1181    1144    1142    1207         9       180.000       2.61500    2     ; C-C-N-C, prebuilt X-c2-na-X
 1181    1144    1142    1233         9       180.000       2.61500    2     ; C-C-N-C, prebuilt X-c2-na-X
 1181    1144    1143    1206         9       180.000       2.61500    2     ; C-C-N-C, prebuilt X-c2-na-X
 1181    1182    1184    1186         9       180.000      15.16700    2     ; C-C-C-C, prebuilt X-ca-ca-X
 1181    1182    1184    1224         9       180.000      15.16700    2     ; C-C-C-H, prebuilt X-ca-ca-X
 1181    1183    1185    1186         9       180.000      15.16700    2     ; C-C-C-C, prebuilt X-ca-ca-X
 1181    1183    1185    1231         9       180.000      15.16700    2     ; C-C-C-H, prebuilt X-ca-ca-X
 1182    1181    1183    1185         9       180.000      15.16700    2     ; C-C-C-C, prebuilt X-ca-ca-X
 1182    1181    1183    1225         9       180.000      15.16700    2     ; C-C-C-H, prebuilt X-ca-ca-X
 1182    1184    1186    1185         9       180.000      15.16700    2     ; C-C-C-C, prebuilt X-ca-ca-X
 1182    1184    1186    1187         9       180.000      15.16700    2     ; C-C-C-C, prebuilt X-ca-ca-X
 1183    1181    1182    1184         9       180.000      15.16700    2     ; C-C-C-C, prebuilt X-ca-ca-X
 1183    1181    1182    1223         9       180.000      15.16700    2     ; C-C-C-H, prebuilt X-ca-ca-X
 1183    1185    1186    1184         9       180.000      15.16700    2     ; C-C-C-C, prebuilt X-ca-ca-X
 1183    1185    1186    1187         9       180.000      15.16700    2     ; C-C-C-C, prebuilt X-ca-ca-X
 1184    1186    1185    1231         9       180.000      15.16700    2     ; C-C-C-H, prebuilt X-ca-ca-X
 1184    1186    1187    1188         9       180.000       2.92880    2     ; C-C-C-N, prebuilt X-c2-ca-X
 1184    1186    1187    1189         9       180.000       2.92880    2     ; C-C-C-N, prebuilt X-c2-ca-X
 1185    1186    1184    1224         9       180.000      15.16700    2     ; C-C-C-H, prebuilt X-ca-ca-X
 1185    1186    1187    1188         9       180.000       2.92880    2     ; C-C-C-N, prebuilt X-c2-ca-X
 1185    1186    1187    1189         9       180.000       2.92880    2     ; C-C-C-N, prebuilt X-c2-ca-X
 1186    1184    1182    1223         9       180.000      15.16700    2     ; C-C-C-H, prebuilt X-ca-ca-X
 1186    1185    1183    1225         9       180.000      15.16700    2     ; C-C-C-H, prebuilt X-ca-ca-X
 1186    1187    1188    1190         9       180.000       2.61500    2     ; C-C-N-C, prebuilt X-c2-na-X
 1186    1187    1188    1196         9       180.000       2.61500    2     ; C-C-N-C, prebuilt X-c2-na-X
 1186    1187    1189    1191         9       180.000       2.61500    2     ; C-C-N-C, prebuilt X-c2-na-X
 1186    1187    1189    1192         9       180.000       2.61500    2     ; C-C-N-C, prebuilt X-c2-na-X
 1187    1186    1184    1224         9       180.000      15.16700    2     ; C-C-C-H, prebuilt X-ca-ca-X
 1187    1186    1185    1231         9       180.000      15.16700    2     ; C-C-C-H, prebuilt X-ca-ca-X
 1187    1188    1190    1191         9       180.000       2.61500    2     ; C-N-C-C, prebuilt X-c2-na-X
 1187    1188    1190    1230         9       180.000       2.61500    2     ; C-N-C-H, prebuilt X-c2-na-X
 1187    1188    1196    1197         9       180.000       1.25520    2     ; C-N-C-C, prebuilt X-ca-na-X
 1187    1188    1196    1201         9       180.000       1.25520    2     ; C-N-C-C, prebuilt X-ca-na-X
 1187    1189    1191    1190         9       180.000       2.61500    2     ; C-N-C-C, prebuilt X-c2-na-X
 1187    1189    1191    1202         9       180.000       2.61500    2     ; C-N-C-C, prebuilt X-c2-na-X
 1187    1189    1192    1193         9         0.000       0.00000    2     ; C-N-C-H, prebuilt X-c3-na-X
 1187    1189    1192    1194         9         0.000       0.00000    2     ; C-N-C-H, prebuilt X-c3-na-X
 1187    1189    1192    1195         9         0.000       0.00000    2     ; C-N-C-H, prebuilt X-c3-na-X
 1188    1187    1189    1191         9       180.000       2.61500    2     ; N-C-N-C, prebuilt X-c2-na-X
 1188    1187    1189    1192         9       180.000       2.61500    2     ; N-C-N-C, prebuilt X-c2-na-X
 1188    1190    1191    1189         9       180.000      27.82360    2     ; N-C-C-N, prebuilt X-c2-c2-X
 1188    1190    1191    1202         9       180.000      27.82360    2     ; N-C-C-C, prebuilt X-c2-c2-X
 1188    1196    1197    1198         9       180.000      15.16700    2     ; N-C-C-C, prebuilt X-ca-ca-X
 1188    1196    1197    1227         9       180.000      15.16700    2     ; N-C-C-H, prebuilt X-ca-ca-X
 1188    1196    1201    1200         9       180.000      15.16700    2     ; N-C-C-C, prebuilt X-ca-ca-X
 1188    1196    1201    1229         9       180.000      15.16700    2     ; N-C-C-H, prebuilt X-ca-ca-X
 1189    1187    1188    1190         9       180.000       2.61500    2     ; N-C-N-C, prebuilt X-c2-na-X
 1189    1187    1188    1196         9       180.000       2.61500    2     ; N-C-N-C, prebuilt X-c2-na-X
 1189    1191    1190    1230         9       180.000      27.82360    2     ; N-C-C-H, prebuilt X-c2-c2-X
 1189    1191    1202    1203         9         0.000       0.00000    2     ; N-C-C-F, prebuilt X-c2-c3-X
 1189    1191    1202    1204         9         0.000       0.00000    2     ; N-C-C-F, prebuilt X-c2-c3-X
 1189    1191    1202    1205         9         0.000       0.00000    2     ; N-C-C-F, prebuilt X-c2-c3-X
 1190    1188    1196    1197         9       180.000       1.25520    2     ; C-N-C-C, prebuilt X-ca-na-X
 1190    1188    1196    1201         9       180.000       1.25520    2     ; C-N-C-C, prebuilt X-ca-na-X
 1190    1191    1189    1192         9       180.000       2.61500    2     ; C-C-N-C, prebuilt X-c2-na-X
 1190    1191    1202    1203         9         0.000       0.00000    2     ; C-C-C-F, prebuilt X-c2-c3-X
 1190    1191    1202    1204         9         0.000       0.00000    2     ; C-C-C-F, prebuilt X-c2-c3-X
 1190    1191    1202    1205         9         0.000       0.00000    2     ; C-C-C-F, prebuilt X-c2-c3-X
 1191    1189    1192    1193         9         0.000       0.00000    2     ; C-N-C-H, prebuilt X-c3-na-X
 1191    1189    1192    1194         9         0.000       0.00000    2     ; C-N-C-H, prebuilt X-c3-na-X
 1191    1189    1192    1195         9         0.000       0.00000    2     ; C-N-C-H, prebuilt X-c3-na-X
 1191    1190    1188    1196         9       180.000       2.61500    2     ; C-C-N-C, prebuilt X-c2-na-X
 1192    1189    1191    1202         9       180.000       2.61500    2     ; C-N-C-C, prebuilt X-c2-na-X
 1196    1188    1190    1230         9       180.000       2.61500    2     ; C-N-C-H, prebuilt X-c2-na-X
 1196    1197    1198    1199         9       180.000      15.16700    2     ; C-C-C-C, prebuilt X-ca-ca-X
 1196    1197    1198    1226         9       180.000      15.16700    2     ; C-C-C-H, prebuilt X-ca-ca-X
 1196    1201    1200    1199         9       180.000      15.16700    2     ; C-C-C-C, prebuilt X-ca-ca-X
 1196    1201    1200    1228         9       180.000      15.16700    2     ; C-C-C-H, prebuilt X-ca-ca-X
 1197    1196    1201    1200         9       180.000      15.16700    2     ; C-C-C-C, prebuilt X-ca-ca-X
 1197    1196    1201    1229         9       180.000      15.16700    2     ; C-C-C-H, prebuilt X-ca-ca-X
 1197    1198    1199    1200         9       180.000      15.16700    2     ; C-C-C-C, prebuilt X-ca-ca-X
 1198    1197    1196    1201         9       180.000      15.16700    2     ; C-C-C-C, prebuilt X-ca-ca-X
 1198    1199    1200    1201         9       180.000      15.16700    2     ; C-C-C-C, prebuilt X-ca-ca-X
 1198    1199    1200    1228         9       180.000      15.16700    2     ; C-C-C-H, prebuilt X-ca-ca-X
 1199    1198    1197    1227         9       180.000      15.16700    2     ; C-C-C-H, prebuilt X-ca-ca-X
 1199    1200    1201    1229         9       180.000      15.16700    2     ; C-C-C-H, prebuilt X-ca-ca-X
 1200    1199    1198    1226         9       180.000      15.16700    2     ; C-C-C-H, prebuilt X-ca-ca-X
 1201    1196    1197    1227         9       180.000      15.16700    2     ; C-C-C-H, prebuilt X-ca-ca-X
 1202    1191    1190    1230         9       180.000      27.82360    2     ; C-C-C-H, prebuilt X-c2-c2-X
 1206    1207    1142    1233         9       180.000       2.61500    2     ; C-C-N-C, prebuilt X-c2-na-X
 1206    1207    1208    1209         9         0.000       0.00000    2     ; C-C-C-F, prebuilt X-c2-c3-X
 1206    1207    1208    1210         9         0.000       0.00000    2     ; C-C-C-F, prebuilt X-c2-c3-X
 1206    1207    1208    1232         9         0.000       0.00000    2     ; C-C-C-F, prebuilt X-c2-c3-X
 1207    1142    1233    1234         9         0.000       0.00000    2     ; C-N-C-H, prebuilt X-c3-na-X
 1207    1142    1233    1235         9         0.000       0.00000    2     ; C-N-C-H, prebuilt X-c3-na-X
 1207    1142    1233    1236         9         0.000       0.00000    2     ; C-N-C-H, prebuilt X-c3-na-X
 1208    1207    1142    1233         9       180.000       2.61500    2     ; C-C-N-C, prebuilt X-c2-na-X
 1208    1207    1206    1211         9       180.000      27.82360    2     ; C-C-C-H, prebuilt X-c2-c2-X
 1212    1146    1147    1213         9       180.000      15.16700    2     ; H-C-C-H, prebuilt X-ca-ca-X
 1214    1150    1149    1215         9       180.000      15.16700    2     ; H-C-C-H, prebuilt X-ca-ca-X
 1217    1159    1160    1218         9       180.000      15.16700    2     ; H-C-C-H, prebuilt X-ca-ca-X
 1219    1164    1166    1221         9       180.000      15.16700    2     ; H-C-C-H, prebuilt X-ca-ca-X
 1222    1177    1178    1294         9       180.000      10.46000    2     ; O-C-N-C, prebuilt X-c-n-X
 1223    1182    1184    1224         9       180.000      15.16700    2     ; H-C-C-H, prebuilt X-ca-ca-X
 1225    1183    1185    1231         9       180.000      15.16700    2     ; H-C-C-H, prebuilt X-ca-ca-X
 1226    1198    1197    1227         9       180.000      15.16700    2     ; H-C-C-H, prebuilt X-ca-ca-X
 1228    1200    1201    1229         9       180.000      15.16700    2     ; H-C-C-H, prebuilt X-ca-ca-X
 1237    1239    1238    1240         9       180.000       2.61500    2     ; N-C-N-C, prebuilt X-c2-na-X
 1237    1239    1238    1301         9       180.000       2.61500    2     ; N-C-N-C, prebuilt X-c2-na-X
 1237    1239    1276    1277         9       180.000       2.92880    2     ; N-C-C-C, prebuilt X-c2-ca-X
 1237    1239    1276    1278         9       180.000       2.92880    2     ; N-C-C-C, prebuilt X-c2-ca-X
 1237    1302    1301    1238         9       180.000      27.82360    2     ; N-C-C-N, prebuilt X-c2-c2-X
 1237    1302    1301    1306         9       180.000      27.82360    2     ; N-C-C-H, prebuilt X-c2-c2-X
 1237    1302    1303    1304         9         0.000       0.00000    2     ; N-C-C-F, prebuilt X-c2-c3-X
 1237    1302    1303    1305         9         0.000       0.00000    2     ; N-C-C-F, prebuilt X-c2-c3-X
 1237    1302    1303    1327         9         0.000       0.00000    2     ; N-C-C-F, prebuilt X-c2-c3-X
 1238    1239    1237    1302         9       180.000       2.61500    2     ; N-C-N-C, prebuilt X-c2-na-X
 1238    1239    1237    1328         9       180.000       2.61500    2     ; N-C-N-C, prebuilt X-c2-na-X
 1238    1239    1276    1277         9       180.000       2.92880    2     ; N-C-C-C, prebuilt X-c2-ca-X
 1238    1239    1276    1278         9       180.000       2.92880    2     ; N-C-C-C, prebuilt X-c2-ca-X
 1238    1240    1241    1242         9       180.000      15.16700    2     ; N-C-C-C, prebuilt X-ca-ca-X
 1238    1240    1241    1307         9       180.000      15.16700    2     ; N-C-C-H, prebuilt X-ca-ca-X
 1238    1240    1245    1244         9       180.000      15.16700    2     ; N-C-C-C, prebuilt X-ca-ca-X
 1238    1240    1245    1309         9       180.000      15.16700    2     ; N-C-C-H, prebuilt X-ca-ca-X
 1238    1301    1302    1303         9       180.000      27.82360    2     ; N-C-C-C, prebuilt X-c2-c2-X
 1239    1237    1302    1301         9       180.000       2.61500    2     ; C-N-C-C, prebuilt X-c2-na-X
 1239    1237    1302    1303         9       180.000       2.61500    2     ; C-N-C-C, prebuilt X-c2-na-X
 1239    1237    1328    1329         9         0.000       0.00000    2     ; C-N-C-H, prebuilt X-c3-na-X
 1239    1237    1328    1330         9         0.000       0.00000    2     ; C-N-C-H, prebuilt X-c3-na-X
 1239    1237    1328    1331         9         0.000       0.00000    2     ; C-N-C-H, prebuilt X-c3-na-X
 1239    1238    1240    1241         9       180.000       1.25520    2     ; C-N-C-C, prebuilt X-ca-na-X
 1239    1238    1240    1245         9       180.000       1.25520    2     ; C-N-C-C, prebuilt X-ca-na-X
 1239    1238    1301    1302         9       180.000       2.61500    2     ; C-N-C-C, prebuilt X-c2-na-X
 1239    1238    1301    1306         9       180.000       2.61500    2     ; C-N-C-H, prebuilt X-c2-na-X
 1239    1276    1277    1279         9       180.000      15.16700    2     ; C-C-C-C, prebuilt X-ca-ca-X
 1239    1276    1277    1318         9       180.000      15.16700    2     ; C-C-C-H, prebuilt X-ca-ca-X
 1239    1276    1278    1280         9       180.000      15.16700    2     ; C-C-C-C, prebuilt X-ca-ca-X
 1239    1276    1278    1320         9       180.000      15.16700    2     ; C-C-C-H, prebuilt X-ca-ca-X
 1240    1238    1239    1276         9       180.000       2.61500    2     ; C-N-C-C, prebuilt X-c2-na-X
 1240    1238    1301    1302         9       180.000       2.61500    2     ; C-N-C-C, prebuilt X-c2-na-X
 1240    1238    1301    1306         9       180.000       2.61500    2     ; C-N-C-H, prebuilt X-c2-na-X
 1240    1241    1242    1243         9       180.000      15.16700    2     ; C-C-C-C, prebuilt X-ca-ca-X
 1240    1241    1242    1308         9       180.000      15.16700    2     ; C-C-C-H, prebuilt X-ca-ca-X
 1240    1245    1244    1243         9       180.000      15.16700    2     ; C-C-C-C, prebuilt X-ca-ca-X
 1240    1245    1244    1310         9       180.000      15.16700    2     ; C-C-C-H, prebuilt X-ca-ca-X
 1241    1240    1238    1301         9       180.000       1.25520    2     ; C-C-N-C, prebuilt X-ca-na-X
 1241    1240    1245    1244         9       180.000      15.16700    2     ; C-C-C-C, prebuilt X-ca-ca-X
 1241    1240    1245    1309         9       180.000      15.16700    2     ; C-C-C-H, prebuilt X-ca-ca-X
 1241    1242    1243    1244         9       180.000      15.16700    2     ; C-C-C-C, prebuilt X-ca-ca-X
 1241    1242    1243    1246         9       180.000      15.16700    2     ; C-C-C-N, prebuilt X-ca-ca-X
 1242    1241    1240    1245         9       180.000      15.16700    2     ; C-C-C-C, prebuilt X-ca-ca-X
 1242    1243    1244    1245         9       180.000      15.16700    2     ; C-C-C-C, prebuilt X-ca-ca-X
 1242    1243    1244    1310         9       180.000      15.16700    2     ; C-C-C-H, prebuilt X-ca-ca-X
 1242    1243    1246    1247         9       180.000       1.88280    2     ; C-C-N-C, prebuilt X-ca-n-X
 1242    1243    1246    1250         9       180.000       1.88280    2     ; C-C-N-C, prebuilt X-ca-n-X
 1243    1242    1241    1307         9       180.000      15.16700    2     ; C-C-C-H, prebuilt X-ca-ca-X
 1243    1244    1245    1309         9       180.000      15.16700    2     ; C-C-C-H, prebuilt X-ca-ca-X
 1243    1246    1247    1248         9       180.000      10.46000    2     ; C-N-C-C, prebuilt X-c-n-X
 1243    1246    1247    1271         9       180.000      10.46000    2     ; C-N-C-O, prebuilt X-c-n-X
 1243    1246    1250    1249         9       180.000      10.46000    2     ; C-N-C-C, prebuilt X-c-n-X
 1243    1246    1250    1251         9       180.000      10.46000    2     ; C-N-C-O, prebuilt X-c-n-X
 1244    1243    1242    1308         9       180.000      15.16700    2     ; C-C-C-H, prebuilt X-ca-ca-X
 1244    1243    1246    1247         9       180.000       1.88280    2     ; C-C-N-C, prebuilt X-ca-n-X
 1244    1243    1246    1250         9       180.000       1.88280    2     ; C-C-N-C, prebuilt X-ca-n-X
 1245    1240    1238    1301         9       180.000       1.25520    2     ; C-C-N-C, prebuilt X-ca-na-X
 1245    1240    1241    1307         9       180.000      15.16700    2     ; C-C-C-H, prebuilt X-ca-ca-X
 1245    1244    1243    1246         9       180.000      15.16700    2     ; C-C-C-N, prebuilt X-ca-ca-X
 1246    1243    1242    1308         9       180.000      15.16700    2     ; N-C-C-H, prebuilt X-ca-ca-X
 1246    1243    1244    1310         9       180.000      15.16700    2     ; N-C-C-H, prebuilt X-ca-ca-X
 1246    1247    1248    1249         9       180.000       4.18400    2     ; N-C-C-C, prebuilt X-c-ca-X
 1246    1247    1248    1252         9       180.000       4.18400    2     ; N-C-C-C, prebuilt X-c-ca-X
 1246    1250    1249    1248         9       180.000       4.18400    2     ; N-C-C-C, prebuilt X-c-ca-X
 1246    1250    1249    1255         9       180.000       4.18400    2     ; N-C-C-C, prebuilt X-c-ca-X
 1247    1246    1250    1249         9       180.000      10.46000    2     ; C-N-C-C, prebuilt X-c-n-X
 1247    1246    1250    1251         9       180.000      10.46000    2     ; C-N-C-O, prebuilt X-c-n-X
 1247    1248    1249    1250         9       180.000      15.16700    2     ; C-C-C-C, prebuilt X-ca-ca-X
 1247    1248    1249    1255         9       180.000      15.16700    2     ; C-C-C-C, prebuilt X-ca-ca-X
 1247    1248    1252    1253         9       180.000      15.16700    2     ; C-C-C-C, prebuilt X-ca-ca-X
 1247    1248    1252    1311         9       180.000      15.16700    2     ; C-C-C-H, prebuilt X-ca-ca-X
 1248    1247    1246    1250         9       180.000      10.46000    2     ; C-C-N-C, prebuilt X-c-n-X
 1248    1249    1250    1251         9       180.000       4.18400    2     ; C-C-C-O, prebuilt X-c-ca-X
 1248    1249    1255    1254         9       180.000      15.16700    2     ; C-C-C-C, prebuilt X-ca-ca-X
 1248    1249    1255    1313         9       180.000      15.16700    2     ; C-C-C-H, prebuilt X-ca-ca-X
 1248    1252    1253    1254         9       180.000      15.16700    2     ; C-C-C-C, prebuilt X-ca-ca-X
 1248    1252    1253    1262         9       180.000      15.16700    2     ; C-C-C-C, prebuilt X-ca-ca-X
 1249    1248    1247    1271         9       180.000       4.18400    2     ; C-C-C-O, prebuilt X-c-ca-X
 1249    1248    1252    1253         9       180.000      15.16700    2     ; C-C-C-C, prebuilt X-ca-ca-X
 1249    1248    1252    1311         9       180.000      15.16700    2     ; C-C-C-H, prebuilt X-ca-ca-X
 1249    1255    1254    1253         9       180.000      15.16700    2     ; C-C-C-C, prebuilt X-ca-ca-X
 1249    1255    1254    1312         9       180.000      15.16700    2     ; C-C-C-H, prebuilt X-ca-ca-X
 1250    1246    1247    1271         9       180.000      10.46000    2     ; C-N-C-O, prebuilt X-c-n-X
 1250    1249    1248    1252         9       180.000      15.16700    2     ; C-C-C-C, prebuilt X-ca-ca-X
 1250    1249    1255    1254         9       180.000      15.16700    2     ; C-C-C-C, prebuilt X-ca-ca-X
 1250    1249    1255    1313         9       180.000      15.16700    2     ; C-C-C-H, prebuilt X-ca-ca-X
 1251    1250    1249    1255         9       180.000       4.18400    2     ; O-C-C-C, prebuilt X-c-ca-X
 1252    1248    1247    1271         9       180.000       4.18400    2     ; C-C-C-O, prebuilt X-c-ca-X
 1252    1248    1249    1255         9       180.000      15.16700    2     ; C-C-C-C, prebuilt X-ca-ca-X
 1252    1253    1254    1255         9       180.000      15.16700    2     ; C-C-C-C, prebuilt X-ca-ca-X
 1252    1253    1254    1312         9       180.000      15.16700    2     ; C-C-C-H, prebuilt X-ca-ca-X
 1252    1253    1262    1256         9         0.000       0.00000    2     ; C-C-C-C, prebuilt X-c3-ca-X
 1252    1253    1262    1263         9         0.000       0.00000    2     ; C-C-C-C, prebuilt X-c3-ca-X
 1252    1253    1262    1267         9         0.000       0.00000    2     ; C-C-C-C, prebuilt X-c3-ca-X
 1253    1254    1255    1313         9       180.000      15.16700    2     ; C-C-C-H, prebuilt X-ca-ca-X
 1253    1262    1256    1257         9         0.000       0.00000    2     ; C-C-C-C, prebuilt X-c3-ca-X
 1253    1262    1256    1259         9         0.000       0.00000    2     ; C-C-C-C, prebuilt X-c3-ca-X
 1253    1262    1263    1264         9         0.000       0.65084    3     ; C-C-C-F, prebuilt X-c3-c3-X
 1253    1262    1263    1265         9         0.000       0.65084    3     ; C-C-C-F, prebuilt X-c3-c3-X
 1253    1262    1263    1266         9         0.000       0.65084    3     ; C-C-C-F, prebuilt X-c3-c3-X
 1253    1262    1267    1268         9         0.000       0.65084    3     ; C-C-C-F, prebuilt X-c3-c3-X
 1253    1262    1267    1269         9         0.000       0.65084    3     ; C-C-C-F, prebuilt X-c3-c3-X
 1253    1262    1267    1270         9         0.000       0.65084    3     ; C-C-C-F, prebuilt X-c3-c3-X
 1254    1253    1252    1311         9       180.000      15.16700    2     ; C-C-C-H, prebuilt X-ca-ca-X
 1254    1253    1262    1256         9         0.000       0.00000    2     ; C-C-C-C, prebuilt X-c3-ca-X
 1254    1253    1262    1263         9         0.000       0.00000    2     ; C-C-C-C, prebuilt X-c3-ca-X
 1254    1253    1262    1267         9         0.000       0.00000    2     ; C-C-C-C, prebuilt X-c3-ca-X
 1255    1254    1253    1262         9       180.000      15.16700    2     ; C-C-C-C, prebuilt X-ca-ca-X
 1256    1257    1258    1260         9       180.000      15.16700    2     ; C-C-C-C, prebuilt X-ca-ca-X
 1256    1257    1258    1272         9       180.000      15.16700    2     ; C-C-C-C, prebuilt X-ca-ca-X
 1256    1259    1261    1260         9       180.000      15.16700    2     ; C-C-C-C, prebuilt X-ca-ca-X
 1256    1259    1261    1316         9       180.000      15.16700    2     ; C-C-C-H, prebuilt X-ca-ca-X
 1256    1262    1263    1264         9         0.000       0.65084    3     ; C-C-C-F, prebuilt X-c3-c3-X
 1256    1262    1263    1265         9         0.000       0.65084    3     ; C-C-C-F, prebuilt X-c3-c3-X
 1256    1262    1263    1266         9         0.000       0.65084    3     ; C-C-C-F, prebuilt X-c3-c3-X
 1256    1262    1267    1268         9         0.000       0.65084    3     ; C-C-C-F, prebuilt X-c3-c3-X
 1256    1262    1267    1269         9         0.000       0.65084    3     ; C-C-C-F, prebuilt X-c3-c3-X
 1256    1262    1267    1270         9         0.000       0.65084    3     ; C-C-C-F, prebuilt X-c3-c3-X
 1257    1256    1259    1261         9       180.000      15.16700    2     ; C-C-C-C, prebuilt X-ca-ca-X
 1257    1256    1259    1314         9       180.000      15.16700    2     ; C-C-C-H, prebuilt X-ca-ca-X
 1257    1256    1262    1263         9         0.000       0.00000    2     ; C-C-C-C, prebuilt X-c3-ca-X
 1257    1256    1262    1267         9         0.000       0.00000    2     ; C-C-C-C, prebuilt X-c3-ca-X
 1257    1258    1260    1261         9       180.000      15.16700    2     ; C-C-C-C, prebuilt X-ca-ca-X
 1257    1258    1260    1274         9       180.000      15.16700    2     ; C-C-C-C, prebuilt X-ca-ca-X
 1257    1258    1272    1273         9       180.000       4.18400    2     ; C-C-C-N, prebuilt X-c-ca-X
 1257    1258    1272    1317         9       180.000       4.18400    2     ; C-C-C-O, prebuilt X-c-ca-X
 1258    1257    1256    1259         9       180.000      15.16700    2     ; C-C-C-C, prebuilt X-ca-ca-X
 1258    1257    1256    1262         9       180.000      15.16700    2     ; C-C-C-C, prebuilt X-ca-ca-X
 1258    1260    1261    1259         9       180.000      15.16700    2     ; C-C-C-C, prebuilt X-ca-ca-X
 1258    1260    1261    1316         9       180.000      15.16700    2     ; C-C-C-H, prebuilt X-ca-ca-X
 1258    1260    1274    1273         9       180.000       4.18400    2     ; C-C-C-N, prebuilt X-c-ca-X
 1258    1260    1274    1275         9       180.000       4.18400    2     ; C-C-C-O, prebuilt X-c-ca-X
 1258    1272    1273    1274         9       180.000      10.46000    2     ; C-C-N-C, prebuilt X-c-n-X
 1258    1272    1273    1389         9       180.000      10.46000    2     ; C-C-N-C, prebuilt X-c-n-X
 1259    1256    1257    1315         9       180.000      15.16700    2     ; C-C-C-H, prebuilt X-ca-ca-X
 1259    1256    1262    1263         9         0.000       0.00000    2     ; C-C-C-C, prebuilt X-c3-ca-X
 1259    1256    1262    1267         9         0.000       0.00000    2     ; C-C-C-C, prebuilt X-c3-ca-X
 1259    1261    1260    1274         9       180.000      15.16700    2     ; C-C-C-C, prebuilt X-ca-ca-X
 1260    1258    1257    1315         9       180.000      15.16700    2     ; C-C-C-H, prebuilt X-ca-ca-X
 1260    1258    1272    1273         9       180.000       4.18400    2     ; C-C-C-N, prebuilt X-c-ca-X
 1260    1258    1272    1317         9       180.000       4.18400    2     ; C-C-C-O, prebuilt X-c-ca-X
 1260    1261    1259    1314         9       180.000      15.16700    2     ; C-C-C-H, prebuilt X-ca-ca-X
 1260    1274    1273    1272         9       180.000      10.46000    2     ; C-C-N-C, prebuilt X-c-n-X
 1260    1274    1273    1389         9       180.000      10.46000    2     ; C-C-N-C, prebuilt X-c-n-X
 1261    1259    1256    1262         9       180.000      15.16700    2     ; C-C-C-C, prebuilt X-ca-ca-X
 1261    1260    1258    1272         9       180.000      15.16700    2     ; C-C-C-C, prebuilt X-ca-ca-X
 1261    1260    1274    1273         9       180.000       4.18400    2     ; C-C-C-N, prebuilt X-c-ca-X
 1261    1260    1274    1275         9       180.000       4.18400    2     ; C-C-C-O, prebuilt X-c-ca-X
 1262    1253    1252    1311         9       180.000      15.16700    2     ; C-C-C-H, prebuilt X-ca-ca-X
 1262    1253    1254    1312         9       180.000      15.16700    2     ; C-C-C-H, prebuilt X-ca-ca-X
 1262    1256    1257    1315         9       180.000      15.16700    2     ; C-C-C-H, prebuilt X-ca-ca-X
 1262    1256    1259    1314         9       180.000      15.16700    2     ; C-C-C-H, prebuilt X-ca-ca-X
 1263    1262    1267    1268         9         0.000       0.65084    3     ; C-C-C-F, prebuilt X-c3-c3-X
 1263    1262    1267    1269         9         0.000       0.65084    3     ; C-C-C-F, prebuilt X-c3-c3-X
 1263    1262    1267    1270         9         0.000       0.65084    3     ; C-C-C-F, prebuilt X-c3-c3-X
 1264    1263    1262    1267         9         0.000       0.65084    3     ; F-C-C-C, prebuilt X-c3-c3-X
 1265    1263    1262    1267         9         0.000       0.65084    3     ; F-C-C-C, prebuilt X-c3-c3-X
 1266    1263    1262    1267         9         0.000       0.65084    3     ; F-C-C-C, prebuilt X-c3-c3-X
 1272    1258    1257    1315         9       180.000      15.16700    2     ; C-C-C-H, prebuilt X-ca-ca-X
 1272    1258    1260    1274         9       180.000      15.16700    2     ; C-C-C-C, prebuilt X-ca-ca-X
 1272    1273    1274    1275         9       180.000      10.46000    2     ; C-N-C-O, prebuilt X-c-n-X
 1272    1273    1389    1388         9       180.000       1.88280    2     ; C-N-C-C, prebuilt X-ca-n-X
 1272    1273    1389    1390         9       180.000       1.88280    2     ; C-N-C-C, prebuilt X-ca-n-X
 1273    1389    1388    1387         9       180.000      15.16700    2     ; N-C-C-C, prebuilt X-ca-ca-X
 1273    1389    1388    1416         9       180.000      15.16700    2     ; N-C-C-H, prebuilt X-ca-ca-X
 1273    1389    1390    1391         9       180.000      15.16700    2     ; N-C-C-C, prebuilt X-ca-ca-X
 1273    1389    1390    1418         9       180.000      15.16700    2     ; N-C-C-H, prebuilt X-ca-ca-X
 1274    1260    1261    1316         9       180.000      15.16700    2     ; C-C-C-H, prebuilt X-ca-ca-X
 1274    1273    1272    1317         9       180.000      10.46000    2     ; C-N-C-O, prebuilt X-c-n-X
 1274    1273    1389    1388         9       180.000       1.88280    2     ; C-N-C-C, prebuilt X-ca-n-X
 1274    1273    1389    1390         9       180.000       1.88280    2     ; C-N-C-C, prebuilt X-ca-n-X
 1275    1274    1273    1389         9       180.000      10.46000    2     ; O-C-N-C, prebuilt X-c-n-X
 1276    1239    1237    1302         9       180.000       2.61500    2     ; C-C-N-C, prebuilt X-c2-na-X
 1276    1239    1237    1328         9       180.000       2.61500    2     ; C-C-N-C, prebuilt X-c2-na-X
 1276    1239    1238    1301         9       180.000       2.61500    2     ; C-C-N-C, prebuilt X-c2-na-X
 1276    1277    1279    1281         9       180.000      15.16700    2     ; C-C-C-C, prebuilt X-ca-ca-X
 1276    1277    1279    1319         9       180.000      15.16700    2     ; C-C-C-H, prebuilt X-ca-ca-X
 1276    1278    1280    1281         9       180.000      15.16700    2     ; C-C-C-C, prebuilt X-ca-ca-X
 1276    1278    1280    1326         9       180.000      15.16700    2     ; C-C-C-H, prebuilt X-ca-ca-X
 1277    1276    1278    1280         9       180.000      15.16700    2     ; C-C-C-C, prebuilt X-ca-ca-X
 1277    1276    1278    1320         9       180.000      15.16700    2     ; C-C-C-H, prebuilt X-ca-ca-X
 1277    1279    1281    1280         9       180.000      15.16700    2     ; C-C-C-C, prebuilt X-ca-ca-X
 1277    1279    1281    1282         9       180.000      15.16700    2     ; C-C-C-C, prebuilt X-ca-ca-X
 1278    1276    1277    1279         9       180.000      15.16700    2     ; C-C-C-C, prebuilt X-ca-ca-X
 1278    1276    1277    1318         9       180.000      15.16700    2     ; C-C-C-H, prebuilt X-ca-ca-X
 1278    1280    1281    1279         9       180.000      15.16700    2     ; C-C-C-C, prebuilt X-ca-ca-X
 1278    1280    1281    1282         9       180.000      15.16700    2     ; C-C-C-C, prebuilt X-ca-ca-X
 1279    1281    1280    1326         9       180.000      15.16700    2     ; C-C-C-H, prebuilt X-ca-ca-X
 1279    1281    1282    1283         9       180.000       2.92880    2     ; C-C-C-N, prebuilt X-c2-ca-X
 1279    1281    1282    1284         9       180.000       2.92880    2     ; C-C-C-N, prebuilt X-c2-ca-X
 1280    1281    1279    1319         9       180.000      15.16700    2     ; C-C-C-H, prebuilt X-ca-ca-X
 1280    1281    1282    1283         9       180.000       2.92880    2     ; C-C-C-N, prebuilt X-c2-ca-X
 1280    1281    1282    1284         9       180.000       2.92880    2     ; C-C-C-N, prebuilt X-c2-ca-X
 1281    1279    1277    1318         9       180.000      15.16700    2     ; C-C-C-H, prebuilt X-ca-ca-X
 1281    1280    1278    1320         9       180.000      15.16700    2     ; C-C-C-H, prebuilt X-ca-ca-X
 1281    1282    1283    1285         9       180.000       2.61500    2     ; C-C-N-C, prebuilt X-c2-na-X
 1281    1282    1283    1291         9       180.000       2.61500    2     ; C-C-N-C, prebuilt X-c2-na-X
 1281    1282    1284    1286         9       180.000       2.61500    2     ; C-C-N-C, prebuilt X-c2-na-X
 1281    1282    1284    1287         9       180.000       2.61500    2     ; C-C-N-C, prebuilt X-c2-na-X
 1282    1281    1279    1319         9       180.000      15.16700    2     ; C-C-C-H, prebuilt X-ca-ca-X
 1282    1281    1280    1326         9       180.000      15.16700    2     ; C-C-C-H, prebuilt X-ca-ca-X
 1282    1283    1285    1286         9       180.000       2.61500    2     ; C-N-C-C, prebuilt X-c2-na-X
 1282    1283    1285    1325         9       180.000       2.61500    2     ; C-N-C-H, prebuilt X-c2-na-X
 1282    1283    1291    1292         9       180.000       1.25520    2     ; C-N-C-C, prebuilt X-ca-na-X
 1282    1283    1291    1296         9       180.000       1.25520    2     ; C-N-C-C, prebuilt X-ca-na-X
 1282    1284    1286    1285         9       180.000       2.61500    2     ; C-N-C-C, prebuilt X-c2-na-X
 1282    1284    1286    1297         9       180.000       2.61500    2     ; C-N-C-C, prebuilt X-c2-na-X
 1282    1284    1287    1288         9         0.000       0.00000    2     ; C-N-C-H, prebuilt X-c3-na-X
 1282    1284    1287    1289         9         0.000       0.00000    2     ; C-N-C-H, prebuilt X-c3-na-X
 1282    1284    1287    1290         9         0.000       0.00000    2     ; C-N-C-H, prebuilt X-c3-na-X
 1283    1282    1284    1286         9       180.000       2.61500    2     ; N-C-N-C, prebuilt X-c2-na-X
 1283    1282    1284    1287         9       180.000       2.61500    2     ; N-C-N-C, prebuilt X-c2-na-X
 1283    1285    1286    1284         9       180.000      27.82360    2     ; N-C-C-N, prebuilt X-c2-c2-X
 1283    1285    1286    1297         9       180.000      27.82360    2     ; N-C-C-C, prebuilt X-c2-c2-X
 1283    1291    1292    1293         9       180.000      15.16700    2     ; N-C-C-C, prebuilt X-ca-ca-X
 1283    1291    1292    1322         9       180.000      15.16700    2     ; N-C-C-H, prebuilt X-ca-ca-X
 1283    1291    1296    1295         9       180.000      15.16700    2     ; N-C-C-C, prebuilt X-ca-ca-X
 1283    1291    1296    1324         9       180.000      15.16700    2     ; N-C-C-H, prebuilt X-ca-ca-X
 1284    1282    1283    1285         9       180.000       2.61500    2     ; N-C-N-C, prebuilt X-c2-na-X
 1284    1282    1283    1291         9       180.000       2.61500    2     ; N-C-N-C, prebuilt X-c2-na-X
 1284    1286    1285    1325         9       180.000      27.82360    2     ; N-C-C-H, prebuilt X-c2-c2-X
 1284    1286    1297    1298         9         0.000       0.00000    2     ; N-C-C-F, prebuilt X-c2-c3-X
 1284    1286    1297    1299         9         0.000       0.00000    2     ; N-C-C-F, prebuilt X-c2-c3-X
 1284    1286    1297    1300         9         0.000       0.00000    2     ; N-C-C-F, prebuilt X-c2-c3-X
 1285    1283    1291    1292         9       180.000       1.25520    2     ; C-N-C-C, prebuilt X-ca-na-X
 1285    1283    1291    1296         9       180.000       1.25520    2     ; C-N-C-C, prebuilt X-ca-na-X
 1285    1286    1284    1287         9       180.000       2.61500    2     ; C-C-N-C, prebuilt X-c2-na-X
 1285    1286    1297    1298         9         0.000       0.00000    2     ; C-C-C-F, prebuilt X-c2-c3-X
 1285    1286    1297    1299         9         0.000       0.00000    2     ; C-C-C-F, prebuilt X-c2-c3-X
 1285    1286    1297    1300         9         0.000       0.00000    2     ; C-C-C-F, prebuilt X-c2-c3-X
 1286    1284    1287    1288         9         0.000       0.00000    2     ; C-N-C-H, prebuilt X-c3-na-X
 1286    1284    1287    1289         9         0.000       0.00000    2     ; C-N-C-H, prebuilt X-c3-na-X
 1286    1284    1287    1290         9         0.000       0.00000    2     ; C-N-C-H, prebuilt X-c3-na-X
 1286    1285    1283    1291         9       180.000       2.61500    2     ; C-C-N-C, prebuilt X-c2-na-X
 1287    1284    1286    1297         9       180.000       2.61500    2     ; C-N-C-C, prebuilt X-c2-na-X
 1291    1283    1285    1325         9       180.000       2.61500    2     ; C-N-C-H, prebuilt X-c2-na-X
 1291    1292    1293    1294         9       180.000      15.16700    2     ; C-C-C-C, prebuilt X-ca-ca-X
 1291    1292    1293    1321         9       180.000      15.16700    2     ; C-C-C-H, prebuilt X-ca-ca-X
 1291    1296    1295    1294         9       180.000      15.16700    2     ; C-C-C-C, prebuilt X-ca-ca-X
 1291    1296    1295    1323         9       180.000      15.16700    2     ; C-C-C-H, prebuilt X-ca-ca-X
 1292    1291    1296    1295         9       180.000      15.16700    2     ; C-C-C-C, prebuilt X-ca-ca-X
 1292    1291    1296    1324         9       180.000      15.16700    2     ; C-C-C-H, prebuilt X-ca-ca-X
 1292    1293    1294    1295         9       180.000      15.16700    2     ; C-C-C-C, prebuilt X-ca-ca-X
 1293    1292    1291    1296         9       180.000      15.16700    2     ; C-C-C-C, prebuilt X-ca-ca-X
 1293    1294    1295    1296         9       180.000      15.16700    2     ; C-C-C-C, prebuilt X-ca-ca-X
 1293    1294    1295    1323         9       180.000      15.16700    2     ; C-C-C-H, prebuilt X-ca-ca-X
 1294    1293    1292    1322         9       180.000      15.16700    2     ; C-C-C-H, prebuilt X-ca-ca-X
 1294    1295    1296    1324         9       180.000      15.16700    2     ; C-C-C-H, prebuilt X-ca-ca-X
 1295    1294    1293    1321         9       180.000      15.16700    2     ; C-C-C-H, prebuilt X-ca-ca-X
 1296    1291    1292    1322         9       180.000      15.16700    2     ; C-C-C-H, prebuilt X-ca-ca-X
 1297    1286    1285    1325         9       180.000      27.82360    2     ; C-C-C-H, prebuilt X-c2-c2-X
 1301    1302    1237    1328         9       180.000       2.61500    2     ; C-C-N-C, prebuilt X-c2-na-X
 1301    1302    1303    1304         9         0.000       0.00000    2     ; C-C-C-F, prebuilt X-c2-c3-X
 1301    1302    1303    1305         9         0.000       0.00000    2     ; C-C-C-F, prebuilt X-c2-c3-X
 1301    1302    1303    1327         9         0.000       0.00000    2     ; C-C-C-F, prebuilt X-c2-c3-X
 1302    1237    1328    1329         9         0.000       0.00000    2     ; C-N-C-H, prebuilt X-c3-na-X
 1302    1237    1328    1330         9         0.000       0.00000    2     ; C-N-C-H, prebuilt X-c3-na-X
 1302    1237    1328    1331         9         0.000       0.00000    2     ; C-N-C-H, prebuilt X-c3-na-X
 1303    1302    1237    1328         9       180.000       2.61500    2     ; C-C-N-C, prebuilt X-c2-na-X
 1303    1302    1301    1306         9       180.000      27.82360    2     ; C-C-C-H, prebuilt X-c2-c2-X
 1307    1241    1242    1308         9       180.000      15.16700    2     ; H-C-C-H, prebuilt X-ca-ca-X
 1309    1245    1244    1310         9       180.000      15.16700    2     ; H-C-C-H, prebuilt X-ca-ca-X
 1312    1254    1255    1313         9       180.000      15.16700    2     ; H-C-C-H, prebuilt X-ca-ca-X
 1314    1259    1261    1316         9       180.000      15.16700    2     ; H-C-C-H, prebuilt X-ca-ca-X
 1317    1272    1273    1389         9       180.000      10.46000    2     ; O-C-N-C, prebuilt X-c-n-X
 1318    1277    1279    1319         9       180.000      15.16700    2     ; H-C-C-H, prebuilt X-ca-ca-X
 1320    1278    1280    1326         9       180.000      15.16700    2     ; H-C-C-H, prebuilt X-ca-ca-X
 1321    1293    1292    1322         9       180.000      15.16700    2     ; H-C-C-H, prebuilt X-ca-ca-X
 1323    1295    1296    1324         9       180.000      15.16700    2     ; H-C-C-H, prebuilt X-ca-ca-X
 1332    1334    1333    1335         9       180.000       2.61500    2     ; N-C-N-C, prebuilt X-c2-na-X
 1332    1334    1333    1396         9       180.000       2.61500    2     ; N-C-N-C, prebuilt X-c2-na-X
 1332    1334    1371    1372         9       180.000       2.92880    2     ; N-C-C-C, prebuilt X-c2-ca-X
 1332    1334    1371    1373         9       180.000       2.92880    2     ; N-C-C-C, prebuilt X-c2-ca-X
 1332    1397    1396    1333         9       180.000      27.82360    2     ; N-C-C-N, prebuilt X-c2-c2-X
 1332    1397    1396    1401         9       180.000      27.82360    2     ; N-C-C-H, prebuilt X-c2-c2-X
 1332    1397    1398    1399         9         0.000       0.00000    2     ; N-C-C-F, prebuilt X-c2-c3-X
 1332    1397    1398    1400         9         0.000       0.00000    2     ; N-C-C-F, prebuilt X-c2-c3-X
 1332    1397    1398    1422         9         0.000       0.00000    2     ; N-C-C-F, prebuilt X-c2-c3-X
 1333    1334    1332    1397         9       180.000       2.61500    2     ; N-C-N-C, prebuilt X-c2-na-X
 1333    1334    1332    1423         9       180.000       2.61500    2     ; N-C-N-C, prebuilt X-c2-na-X
 1333    1334    1371    1372         9       180.000       2.92880    2     ; N-C-C-C, prebuilt X-c2-ca-X
 1333    1334    1371    1373         9       180.000       2.92880    2     ; N-C-C-C, prebuilt X-c2-ca-X
 1333    1335    1336    1337         9       180.000      15.16700    2     ; N-C-C-C, prebuilt X-ca-ca-X
 1333    1335    1336    1402         9       180.000      15.16700    2     ; N-C-C-H, prebuilt X-ca-ca-X
 1333    1335    1340    1339         9       180.000      15.16700    2     ; N-C-C-C, prebuilt X-ca-ca-X
 1333    1335    1340    1404         9       180.000      15.16700    2     ; N-C-C-H, prebuilt X-ca-ca-X
 1333    1396    1397    1398         9       180.000      27.82360    2     ; N-C-C-C, prebuilt X-c2-c2-X
 1334    1332    1397    1396         9       180.000       2.61500    2     ; C-N-C-C, prebuilt X-c2-na-X
 1334    1332    1397    1398         9       180.000       2.61500    2     ; C-N-C-C, prebuilt X-c2-na-X
 1334    1332    1423    1424         9         0.000       0.00000    2     ; C-N-C-H, prebuilt X-c3-na-X
 1334    1332    1423    1425         9         0.000       0.00000    2     ; C-N-C-H, prebuilt X-c3-na-X
 1334    1332    1423    1426         9         0.000       0.00000    2     ; C-N-C-H, prebuilt X-c3-na-X
 1334    1333    1335    1336         9       180.000       1.25520    2     ; C-N-C-C, prebuilt X-ca-na-X
 1334    1333    1335    1340         9       180.000       1.25520    2     ; C-N-C-C, prebuilt X-ca-na-X
 1334    1333    1396    1397         9       180.000       2.61500    2     ; C-N-C-C, prebuilt X-c2-na-X
 1334    1333    1396    1401         9       180.000       2.61500    2     ; C-N-C-H, prebuilt X-c2-na-X
 1334    1371    1372    1374         9       180.000      15.16700    2     ; C-C-C-C, prebuilt X-ca-ca-X
 1334    1371    1372    1413         9       180.000      15.16700    2     ; C-C-C-H, prebuilt X-ca-ca-X
 1334    1371    1373    1375         9       180.000      15.16700    2     ; C-C-C-C, prebuilt X-ca-ca-X
 1334    1371    1373    1415         9       180.000      15.16700    2     ; C-C-C-H, prebuilt X-ca-ca-X
 1335    1333    1334    1371         9       180.000       2.61500    2     ; C-N-C-C, prebuilt X-c2-na-X
 1335    1333    1396    1397         9       180.000       2.61500    2     ; C-N-C-C, prebuilt X-c2-na-X
 1335    1333    1396    1401         9       180.000       2.61500    2     ; C-N-C-H, prebuilt X-c2-na-X
 1335    1336    1337    1338         9       180.000      15.16700    2     ; C-C-C-C, prebuilt X-ca-ca-X
 1335    1336    1337    1403         9       180.000      15.16700    2     ; C-C-C-H, prebuilt X-ca-ca-X
 1335    1340    1339    1338         9       180.000      15.16700    2     ; C-C-C-C, prebuilt X-ca-ca-X
 1335    1340    1339    1405         9       180.000      15.16700    2     ; C-C-C-H, prebuilt X-ca-ca-X
 1336    1335    1333    1396         9       180.000       1.25520    2     ; C-C-N-C, prebuilt X-ca-na-X
 1336    1335    1340    1339         9       180.000      15.16700    2     ; C-C-C-C, prebuilt X-ca-ca-X
 1336    1335    1340    1404         9       180.000      15.16700    2     ; C-C-C-H, prebuilt X-ca-ca-X
 1336    1337    1338    1339         9       180.000      15.16700    2     ; C-C-C-C, prebuilt X-ca-ca-X
 1336    1337    1338    1341         9       180.000      15.16700    2     ; C-C-C-N, prebuilt X-ca-ca-X
 1337    1336    1335    1340         9       180.000      15.16700    2     ; C-C-C-C, prebuilt X-ca-ca-X
 1337    1338    1339    1340         9       180.000      15.16700    2     ; C-C-C-C, prebuilt X-ca-ca-X
 1337    1338    1339    1405         9       180.000      15.16700    2     ; C-C-C-H, prebuilt X-ca-ca-X
 1337    1338    1341    1342         9       180.000       1.88280    2     ; C-C-N-C, prebuilt X-ca-n-X
 1337    1338    1341    1345         9       180.000       1.88280    2     ; C-C-N-C, prebuilt X-ca-n-X
 1338    1337    1336    1402         9       180.000      15.16700    2     ; C-C-C-H, prebuilt X-ca-ca-X
 1338    1339    1340    1404         9       180.000      15.16700    2     ; C-C-C-H, prebuilt X-ca-ca-X
 1338    1341    1342    1343         9       180.000      10.46000    2     ; C-N-C-C, prebuilt X-c-n-X
 1338    1341    1342    1366         9       180.000      10.46000    2     ; C-N-C-O, prebuilt X-c-n-X
 1338    1341    1345    1344         9       180.000      10.46000    2     ; C-N-C-C, prebuilt X-c-n-X
 1338    1341    1345    1346         9       180.000      10.46000    2     ; C-N-C-O, prebuilt X-c-n-X
 1339    1338    1337    1403         9       180.000      15.16700    2     ; C-C-C-H, prebuilt X-ca-ca-X
 1339    1338    1341    1342         9       180.000       1.88280    2     ; C-C-N-C, prebuilt X-ca-n-X
 1339    1338    1341    1345         9       180.000       1.88280    2     ; C-C-N-C, prebuilt X-ca-n-X
 1340    1335    1333    1396         9       180.000       1.25520    2     ; C-C-N-C, prebuilt X-ca-na-X
 1340    1335    1336    1402         9       180.000      15.16700    2     ; C-C-C-H, prebuilt X-ca-ca-X
 1340    1339    1338    1341         9       180.000      15.16700    2     ; C-C-C-N, prebuilt X-ca-ca-X
 1341    1338    1337    1403         9       180.000      15.16700    2     ; N-C-C-H, prebuilt X-ca-ca-X
 1341    1338    1339    1405         9       180.000      15.16700    2     ; N-C-C-H, prebuilt X-ca-ca-X
 1341    1342    1343    1344         9       180.000       4.18400    2     ; N-C-C-C, prebuilt X-c-ca-X
 1341    1342    1343    1347         9       180.000       4.18400    2     ; N-C-C-C, prebuilt X-c-ca-X
 1341    1345    1344    1343         9       180.000       4.18400    2     ; N-C-C-C, prebuilt X-c-ca-X
 1341    1345    1344    1350         9       180.000       4.18400    2     ; N-C-C-C, prebuilt X-c-ca-X
 1342    1341    1345    1344         9       180.000      10.46000    2     ; C-N-C-C, prebuilt X-c-n-X
 1342    1341    1345    1346         9       180.000      10.46000    2     ; C-N-C-O, prebuilt X-c-n-X
 1342    1343    1344    1345         9       180.000      15.16700    2     ; C-C-C-C, prebuilt X-ca-ca-X
 1342    1343    1344    1350         9       180.000      15.16700    2     ; C-C-C-C, prebuilt X-ca-ca-X
 1342    1343    1347    1348         9       180.000      15.16700    2     ; C-C-C-C, prebuilt X-ca-ca-X
 1342    1343    1347    1406         9       180.000      15.16700    2     ; C-C-C-H, prebuilt X-ca-ca-X
 1343    1342    1341    1345         9       180.000      10.46000    2     ; C-C-N-C, prebuilt X-c-n-X
 1343    1344    1345    1346         9       180.000       4.18400    2     ; C-C-C-O, prebuilt X-c-ca-X
 1343    1344    1350    1349         9       180.000      15.16700    2     ; C-C-C-C, prebuilt X-ca-ca-X
 1343    1344    1350    1408         9       180.000      15.16700    2     ; C-C-C-H, prebuilt X-ca-ca-X
 1343    1347    1348    1349         9       180.000      15.16700    2     ; C-C-C-C, prebuilt X-ca-ca-X
 1343    1347    1348    1357         9       180.000      15.16700    2     ; C-C-C-C, prebuilt X-ca-ca-X
 1344    1343    1342    1366         9       180.000       4.18400    2     ; C-C-C-O, prebuilt X-c-ca-X
 1344    1343    1347    1348         9       180.000      15.16700    2     ; C-C-C-C, prebuilt X-ca-ca-X
 1344    1343    1347    1406         9       180.000      15.16700    2     ; C-C-C-H, prebuilt X-ca-ca-X
 1344    1350    1349    1348         9       180.000      15.16700    2     ; C-C-C-C, prebuilt X-ca-ca-X
 1344    1350    1349    1407         9       180.000      15.16700    2     ; C-C-C-H, prebuilt X-ca-ca-X
 1345    1341    1342    1366         9       180.000      10.46000    2     ; C-N-C-O, prebuilt X-c-n-X
 1345    1344    1343    1347         9       180.000      15.16700    2     ; C-C-C-C, prebuilt X-ca-ca-X
 1345    1344    1350    1349         9       180.000      15.16700    2     ; C-C-C-C, prebuilt X-ca-ca-X
 1345    1344    1350    1408         9       180.000      15.16700    2     ; C-C-C-H, prebuilt X-ca-ca-X
 1346    1345    1344    1350         9       180.000       4.18400    2     ; O-C-C-C, prebuilt X-c-ca-X
 1347    1343    1342    1366         9       180.000       4.18400    2     ; C-C-C-O, prebuilt X-c-ca-X
 1347    1343    1344    1350         9       180.000      15.16700    2     ; C-C-C-C, prebuilt X-ca-ca-X
 1347    1348    1349    1350         9       180.000      15.16700    2     ; C-C-C-C, prebuilt X-ca-ca-X
 1347    1348    1349    1407         9       180.000      15.16700    2     ; C-C-C-H, prebuilt X-ca-ca-X
 1347    1348    1357    1351         9         0.000       0.00000    2     ; C-C-C-C, prebuilt X-c3-ca-X
 1347    1348    1357    1358         9         0.000       0.00000    2     ; C-C-C-C, prebuilt X-c3-ca-X
 1347    1348    1357    1362         9         0.000       0.00000    2     ; C-C-C-C, prebuilt X-c3-ca-X
 1348    1349    1350    1408         9       180.000      15.16700    2     ; C-C-C-H, prebuilt X-ca-ca-X
 1348    1357    1351    1352         9         0.000       0.00000    2     ; C-C-C-C, prebuilt X-c3-ca-X
 1348    1357    1351    1354         9         0.000       0.00000    2     ; C-C-C-C, prebuilt X-c3-ca-X
 1348    1357    1358    1359         9         0.000       0.65084    3     ; C-C-C-F, prebuilt X-c3-c3-X
 1348    1357    1358    1360         9         0.000       0.65084    3     ; C-C-C-F, prebuilt X-c3-c3-X
 1348    1357    1358    1361         9         0.000       0.65084    3     ; C-C-C-F, prebuilt X-c3-c3-X
 1348    1357    1362    1363         9         0.000       0.65084    3     ; C-C-C-F, prebuilt X-c3-c3-X
 1348    1357    1362    1364         9         0.000       0.65084    3     ; C-C-C-F, prebuilt X-c3-c3-X
 1348    1357    1362    1365         9         0.000       0.65084    3     ; C-C-C-F, prebuilt X-c3-c3-X
 1349    1348    1347    1406         9       180.000      15.16700    2     ; C-C-C-H, prebuilt X-ca-ca-X
 1349    1348    1357    1351         9         0.000       0.00000    2     ; C-C-C-C, prebuilt X-c3-ca-X
 1349    1348    1357    1358         9         0.000       0.00000    2     ; C-C-C-C, prebuilt X-c3-ca-X
 1349    1348    1357    1362         9         0.000       0.00000    2     ; C-C-C-C, prebuilt X-c3-ca-X
 1350    1349    1348    1357         9       180.000      15.16700    2     ; C-C-C-C, prebuilt X-ca-ca-X
 1351    1352    1353    1355         9       180.000      15.16700    2     ; C-C-C-C, prebuilt X-ca-ca-X
 1351    1352    1353    1367         9       180.000      15.16700    2     ; C-C-C-C, prebuilt X-ca-ca-X
 1351    1354    1356    1355         9       180.000      15.16700    2     ; C-C-C-C, prebuilt X-ca-ca-X
 1351    1354    1356    1411         9       180.000      15.16700    2     ; C-C-C-H, prebuilt X-ca-ca-X
 1351    1357    1358    1359         9         0.000       0.65084    3     ; C-C-C-F, prebuilt X-c3-c3-X
 1351    1357    1358    1360         9         0.000       0.65084    3     ; C-C-C-F, prebuilt X-c3-c3-X
 1351    1357    1358    1361         9         0.000       0.65084    3     ; C-C-C-F, prebuilt X-c3-c3-X
 1351    1357    1362    1363         9         0.000       0.65084    3     ; C-C-C-F, prebuilt X-c3-c3-X
 1351    1357    1362    1364         9         0.000       0.65084    3     ; C-C-C-F, prebuilt X-c3-c3-X
 1351    1357    1362    1365         9         0.000       0.65084    3     ; C-C-C-F, prebuilt X-c3-c3-X
 1352    1351    1354    1356         9       180.000      15.16700    2     ; C-C-C-C, prebuilt X-ca-ca-X
 1352    1351    1354    1409         9       180.000      15.16700    2     ; C-C-C-H, prebuilt X-ca-ca-X
 1352    1351    1357    1358         9         0.000       0.00000    2     ; C-C-C-C, prebuilt X-c3-ca-X
 1352    1351    1357    1362         9         0.000       0.00000    2     ; C-C-C-C, prebuilt X-c3-ca-X
 1352    1353    1355    1356         9       180.000      15.16700    2     ; C-C-C-C, prebuilt X-ca-ca-X
 1352    1353    1355    1369         9       180.000      15.16700    2     ; C-C-C-C, prebuilt X-ca-ca-X
 1352    1353    1367    1368         9       180.000       4.18400    2     ; C-C-C-N, prebuilt X-c-ca-X
 1352    1353    1367    1412         9       180.000       4.18400    2     ; C-C-C-O, prebuilt X-c-ca-X
 1353    1352    1351    1354         9       180.000      15.16700    2     ; C-C-C-C, prebuilt X-ca-ca-X
 1353    1352    1351    1357         9       180.000      15.16700    2     ; C-C-C-C, prebuilt X-ca-ca-X
 1353    1355    1356    1354         9       180.000      15.16700    2     ; C-C-C-C, prebuilt X-ca-ca-X
 1353    1355    1356    1411         9       180.000      15.16700    2     ; C-C-C-H, prebuilt X-ca-ca-X
 1353    1355    1369    1368         9       180.000       4.18400    2     ; C-C-C-N, prebuilt X-c-ca-X
 1353    1355    1369    1370         9       180.000       4.18400    2     ; C-C-C-O, prebuilt X-c-ca-X
 1353    1367    1368    1369         9       180.000      10.46000    2     ; C-C-N-C, prebuilt X-c-n-X
 1353    1367    1368    1484         9       180.000      10.46000    2     ; C-C-N-C, prebuilt X-c-n-X
 1354    1351    1352    1410         9       180.000      15.16700    2     ; C-C-C-H, prebuilt X-ca-ca-X
 1354    1351    1357    1358         9         0.000       0.00000    2     ; C-C-C-C, prebuilt X-c3-ca-X
 1354    1351    1357    1362         9         0.000       0.00000    2     ; C-C-C-C, prebuilt X-c3-ca-X
 1354    1356    1355    1369         9       180.000      15.16700    2     ; C-C-C-C, prebuilt X-ca-ca-X
 1355    1353    1352    1410         9       180.000      15.16700    2     ; C-C-C-H, prebuilt X-ca-ca-X
 1355    1353    1367    1368         9       180.000       4.18400    2     ; C-C-C-N, prebuilt X-c-ca-X
 1355    1353    1367    1412         9       180.000       4.18400    2     ; C-C-C-O, prebuilt X-c-ca-X
 1355    1356    1354    1409         9       180.000      15.16700    2     ; C-C-C-H, prebuilt X-ca-ca-X
 1355    1369    1368    1367         9       180.000      10.46000    2     ; C-C-N-C, prebuilt X-c-n-X
 1355    1369    1368    1484         9       180.000      10.46000    2     ; C-C-N-C, prebuilt X-c-n-X
 1356    1354    1351    1357         9       180.000      15.16700    2     ; C-C-C-C, prebuilt X-ca-ca-X
 1356    1355    1353    1367         9       180.000      15.16700    2     ; C-C-C-C, prebuilt X-ca-ca-X
 1356    1355    1369    1368         9       180.000       4.18400    2     ; C-C-C-N, prebuilt X-c-ca-X
 1356    1355    1369    1370         9       180.000       4.18400    2     ; C-C-C-O, prebuilt X-c-ca-X
 1357    1348    1347    1406         9       180.000      15.16700    2     ; C-C-C-H, prebuilt X-ca-ca-X
 1357    1348    1349    1407         9       180.000      15.16700    2     ; C-C-C-H, prebuilt X-ca-ca-X
 1357    1351    1352    1410         9       180.000      15.16700    2     ; C-C-C-H, prebuilt X-ca-ca-X
 1357    1351    1354    1409         9       180.000      15.16700    2     ; C-C-C-H, prebuilt X-ca-ca-X
 1358    1357    1362    1363         9         0.000       0.65084    3     ; C-C-C-F, prebuilt X-c3-c3-X
 1358    1357    1362    1364         9         0.000       0.65084    3     ; C-C-C-F, prebuilt X-c3-c3-X
 1358    1357    1362    1365         9         0.000       0.65084    3     ; C-C-C-F, prebuilt X-c3-c3-X
 1359    1358    1357    1362         9         0.000       0.65084    3     ; F-C-C-C, prebuilt X-c3-c3-X
 1360    1358    1357    1362         9         0.000       0.65084    3     ; F-C-C-C, prebuilt X-c3-c3-X
 1361    1358    1357    1362         9         0.000       0.65084    3     ; F-C-C-C, prebuilt X-c3-c3-X
 1367    1353    1352    1410         9       180.000      15.16700    2     ; C-C-C-H, prebuilt X-ca-ca-X
 1367    1353    1355    1369         9       180.000      15.16700    2     ; C-C-C-C, prebuilt X-ca-ca-X
 1367    1368    1369    1370         9       180.000      10.46000    2     ; C-N-C-O, prebuilt X-c-n-X
 1367    1368    1484    1483         9       180.000       1.88280    2     ; C-N-C-C, prebuilt X-ca-n-X
 1367    1368    1484    1485         9       180.000       1.88280    2     ; C-N-C-C, prebuilt X-ca-n-X
 1368    1484    1483    1482         9       180.000      15.16700    2     ; N-C-C-C, prebuilt X-ca-ca-X
 1368    1484    1483    1511         9       180.000      15.16700    2     ; N-C-C-H, prebuilt X-ca-ca-X
 1368    1484    1485    1486         9       180.000      15.16700    2     ; N-C-C-C, prebuilt X-ca-ca-X
 1368    1484    1485    1513         9       180.000      15.16700    2     ; N-C-C-H, prebuilt X-ca-ca-X
 1369    1355    1356    1411         9       180.000      15.16700    2     ; C-C-C-H, prebuilt X-ca-ca-X
 1369    1368    1367    1412         9       180.000      10.46000    2     ; C-N-C-O, prebuilt X-c-n-X
 1369    1368    1484    1483         9       180.000       1.88280    2     ; C-N-C-C, prebuilt X-ca-n-X
 1369    1368    1484    1485         9       180.000       1.88280    2     ; C-N-C-C, prebuilt X-ca-n-X
 1370    1369    1368    1484         9       180.000      10.46000    2     ; O-C-N-C, prebuilt X-c-n-X
 1371    1334    1332    1397         9       180.000       2.61500    2     ; C-C-N-C, prebuilt X-c2-na-X
 1371    1334    1332    1423         9       180.000       2.61500    2     ; C-C-N-C, prebuilt X-c2-na-X
 1371    1334    1333    1396         9       180.000       2.61500    2     ; C-C-N-C, prebuilt X-c2-na-X
 1371    1372    1374    1376         9       180.000      15.16700    2     ; C-C-C-C, prebuilt X-ca-ca-X
 1371    1372    1374    1414         9       180.000      15.16700    2     ; C-C-C-H, prebuilt X-ca-ca-X
 1371    1373    1375    1376         9       180.000      15.16700    2     ; C-C-C-C, prebuilt X-ca-ca-X
 1371    1373    1375    1421         9       180.000      15.16700    2     ; C-C-C-H, prebuilt X-ca-ca-X
 1372    1371    1373    1375         9       180.000      15.16700    2     ; C-C-C-C, prebuilt X-ca-ca-X
 1372    1371    1373    1415         9       180.000      15.16700    2     ; C-C-C-H, prebuilt X-ca-ca-X
 1372    1374    1376    1375         9       180.000      15.16700    2     ; C-C-C-C, prebuilt X-ca-ca-X
 1372    1374    1376    1377         9       180.000      15.16700    2     ; C-C-C-C, prebuilt X-ca-ca-X
 1373    1371    1372    1374         9       180.000      15.16700    2     ; C-C-C-C, prebuilt X-ca-ca-X
 1373    1371    1372    1413         9       180.000      15.16700    2     ; C-C-C-H, prebuilt X-ca-ca-X
 1373    1375    1376    1374         9       180.000      15.16700    2     ; C-C-C-C, prebuilt X-ca-ca-X
 1373    1375    1376    1377         9       180.000      15.16700    2     ; C-C-C-C, prebuilt X-ca-ca-X
 1374    1376    1375    1421         9       180.000      15.16700    2     ; C-C-C-H, prebuilt X-ca-ca-X
 1374    1376    1377    1378         9       180.000       2.92880    2     ; C-C-C-N, prebuilt X-c2-ca-X
 1374    1376    1377    1379         9       180.000       2.92880    2     ; C-C-C-N, prebuilt X-c2-ca-X
 1375    1376    1374    1414         9       180.000      15.16700    2     ; C-C-C-H, prebuilt X-ca-ca-X
 1375    1376    1377    1378         9       180.000       2.92880    2     ; C-C-C-N, prebuilt X-c2-ca-X
 1375    1376    1377    1379         9       180.000       2.92880    2     ; C-C-C-N, prebuilt X-c2-ca-X
 1376    1374    1372    1413         9       180.000      15.16700    2     ; C-C-C-H, prebuilt X-ca-ca-X
 1376    1375    1373    1415         9       180.000      15.16700    2     ; C-C-C-H, prebuilt X-ca-ca-X
 1376    1377    1378    1380         9       180.000       2.61500    2     ; C-C-N-C, prebuilt X-c2-na-X
 1376    1377    1378    1386         9       180.000       2.61500    2     ; C-C-N-C, prebuilt X-c2-na-X
 1376    1377    1379    1381         9       180.000       2.61500    2     ; C-C-N-C, prebuilt X-c2-na-X
 1376    1377    1379    1382         9       180.000       2.61500    2     ; C-C-N-C, prebuilt X-c2-na-X
 1377    1376    1374    1414         9       180.000      15.16700    2     ; C-C-C-H, prebuilt X-ca-ca-X
 1377    1376    1375    1421         9       180.000      15.16700    2     ; C-C-C-H, prebuilt X-ca-ca-X
 1377    1378    1380    1381         9       180.000       2.61500    2     ; C-N-C-C, prebuilt X-c2-na-X
 1377    1378    1380    1420         9       180.000       2.61500    2     ; C-N-C-H, prebuilt X-c2-na-X
 1377    1378    1386    1387         9       180.000       1.25520    2     ; C-N-C-C, prebuilt X-ca-na-X
 1377    1378    1386    1391         9       180.000       1.25520    2     ; C-N-C-C, prebuilt X-ca-na-X
 1377    1379    1381    1380         9       180.000       2.61500    2     ; C-N-C-C, prebuilt X-c2-na-X
 1377    1379    1381    1392         9       180.000       2.61500    2     ; C-N-C-C, prebuilt X-c2-na-X
 1377    1379    1382    1383         9         0.000       0.00000    2     ; C-N-C-H, prebuilt X-c3-na-X
 1377    1379    1382    1384         9         0.000       0.00000    2     ; C-N-C-H, prebuilt X-c3-na-X
 1377    1379    1382    1385         9         0.000       0.00000    2     ; C-N-C-H, prebuilt X-c3-na-X
 1378    1377    1379    1381         9       180.000       2.61500    2     ; N-C-N-C, prebuilt X-c2-na-X
 1378    1377    1379    1382         9       180.000       2.61500    2     ; N-C-N-C, prebuilt X-c2-na-X
 1378    1380    1381    1379         9       180.000      27.82360    2     ; N-C-C-N, prebuilt X-c2-c2-X
 1378    1380    1381    1392         9       180.000      27.82360    2     ; N-C-C-C, prebuilt X-c2-c2-X
 1378    1386    1387    1388         9       180.000      15.16700    2     ; N-C-C-C, prebuilt X-ca-ca-X
 1378    1386    1387    1417         9       180.000      15.16700    2     ; N-C-C-H, prebuilt X-ca-ca-X
 1378    1386    1391    1390         9       180.000      15.16700    2     ; N-C-C-C, prebuilt X-ca-ca-X
 1378    1386    1391    1419         9       180.000      15.16700    2     ; N-C-C-H, prebuilt X-ca-ca-X
 1379    1377    1378    1380         9       180.000       2.61500    2     ; N-C-N-C, prebuilt X-c2-na-X
 1379    1377    1378    1386         9       180.000       2.61500    2     ; N-C-N-C, prebuilt X-c2-na-X
 1379    1381    1380    1420         9       180.000      27.82360    2     ; N-C-C-H, prebuilt X-c2-c2-X
 1379    1381    1392    1393         9         0.000       0.00000    2     ; N-C-C-F, prebuilt X-c2-c3-X
 1379    1381    1392    1394         9         0.000       0.00000    2     ; N-C-C-F, prebuilt X-c2-c3-X
 1379    1381    1392    1395         9         0.000       0.00000    2     ; N-C-C-F, prebuilt X-c2-c3-X
 1380    1378    1386    1387         9       180.000       1.25520    2     ; C-N-C-C, prebuilt X-ca-na-X
 1380    1378    1386    1391         9       180.000       1.25520    2     ; C-N-C-C, prebuilt X-ca-na-X
 1380    1381    1379    1382         9       180.000       2.61500    2     ; C-C-N-C, prebuilt X-c2-na-X
 1380    1381    1392    1393         9         0.000       0.00000    2     ; C-C-C-F, prebuilt X-c2-c3-X
 1380    1381    1392    1394         9         0.000       0.00000    2     ; C-C-C-F, prebuilt X-c2-c3-X
 1380    1381    1392    1395         9         0.000       0.00000    2     ; C-C-C-F, prebuilt X-c2-c3-X
 1381    1379    1382    1383         9         0.000       0.00000    2     ; C-N-C-H, prebuilt X-c3-na-X
 1381    1379    1382    1384         9         0.000       0.00000    2     ; C-N-C-H, prebuilt X-c3-na-X
 1381    1379    1382    1385         9         0.000       0.00000    2     ; C-N-C-H, prebuilt X-c3-na-X
 1381    1380    1378    1386         9       180.000       2.61500    2     ; C-C-N-C, prebuilt X-c2-na-X
 1382    1379    1381    1392         9       180.000       2.61500    2     ; C-N-C-C, prebuilt X-c2-na-X
 1386    1378    1380    1420         9       180.000       2.61500    2     ; C-N-C-H, prebuilt X-c2-na-X
 1386    1387    1388    1389         9       180.000      15.16700    2     ; C-C-C-C, prebuilt X-ca-ca-X
 1386    1387    1388    1416         9       180.000      15.16700    2     ; C-C-C-H, prebuilt X-ca-ca-X
 1386    1391    1390    1389         9       180.000      15.16700    2     ; C-C-C-C, prebuilt X-ca-ca-X
 1386    1391    1390    1418         9       180.000      15.16700    2     ; C-C-C-H, prebuilt X-ca-ca-X
 1387    1386    1391    1390         9       180.000      15.16700    2     ; C-C-C-C, prebuilt X-ca-ca-X
 1387    1386    1391    1419         9       180.000      15.16700    2     ; C-C-C-H, prebuilt X-ca-ca-X
 1387    1388    1389    1390         9       180.000      15.16700    2     ; C-C-C-C, prebuilt X-ca-ca-X
 1388    1387    1386    1391         9       180.000      15.16700    2     ; C-C-C-C, prebuilt X-ca-ca-X
 1388    1389    1390    1391         9       180.000      15.16700    2     ; C-C-C-C, prebuilt X-ca-ca-X
 1388    1389    1390    1418         9       180.000      15.16700    2     ; C-C-C-H, prebuilt X-ca-ca-X
 1389    1388    1387    1417         9       180.000      15.16700    2     ; C-C-C-H, prebuilt X-ca-ca-X
 1389    1390    1391    1419         9       180.000      15.16700    2     ; C-C-C-H, prebuilt X-ca-ca-X
 1390    1389    1388    1416         9       180.000      15.16700    2     ; C-C-C-H, prebuilt X-ca-ca-X
 1391    1386    1387    1417         9       180.000      15.16700    2     ; C-C-C-H, prebuilt X-ca-ca-X
 1392    1381    1380    1420         9       180.000      27.82360    2     ; C-C-C-H, prebuilt X-c2-c2-X
 1396    1397    1332    1423         9       180.000       2.61500    2     ; C-C-N-C, prebuilt X-c2-na-X
 1396    1397    1398    1399         9         0.000       0.00000    2     ; C-C-C-F, prebuilt X-c2-c3-X
 1396    1397    1398    1400         9         0.000       0.00000    2     ; C-C-C-F, prebuilt X-c2-c3-X
 1396    1397    1398    1422         9         0.000       0.00000    2     ; C-C-C-F, prebuilt X-c2-c3-X
 1397    1332    1423    1424         9         0.000       0.00000    2     ; C-N-C-H, prebuilt X-c3-na-X
 1397    1332    1423    1425         9         0.000       0.00000    2     ; C-N-C-H, prebuilt X-c3-na-X
 1397    1332    1423    1426         9         0.000       0.00000    2     ; C-N-C-H, prebuilt X-c3-na-X
 1398    1397    1332    1423         9       180.000       2.61500    2     ; C-C-N-C, prebuilt X-c2-na-X
 1398    1397    1396    1401         9       180.000      27.82360    2     ; C-C-C-H, prebuilt X-c2-c2-X
 1402    1336    1337    1403         9       180.000      15.16700    2     ; H-C-C-H, prebuilt X-ca-ca-X
 1404    1340    1339    1405         9       180.000      15.16700    2     ; H-C-C-H, prebuilt X-ca-ca-X
 1407    1349    1350    1408         9       180.000      15.16700    2     ; H-C-C-H, prebuilt X-ca-ca-X
 1409    1354    1356    1411         9       180.000      15.16700    2     ; H-C-C-H, prebuilt X-ca-ca-X
 1412    1367    1368    1484         9       180.000      10.46000    2     ; O-C-N-C, prebuilt X-c-n-X
 1413    1372    1374    1414         9       180.000      15.16700    2     ; H-C-C-H, prebuilt X-ca-ca-X
 1415    1373    1375    1421         9       180.000      15.16700    2     ; H-C-C-H, prebuilt X-ca-ca-X
 1416    1388    1387    1417         9       180.000      15.16700    2     ; H-C-C-H, prebuilt X-ca-ca-X
 1418    1390    1391    1419         9       180.000      15.16700    2     ; H-C-C-H, prebuilt X-ca-ca-X
 1427    1429    1428    1430         9       180.000       2.61500    2     ; N-C-N-C, prebuilt X-c2-na-X
 1427    1429    1428    1491         9       180.000       2.61500    2     ; N-C-N-C, prebuilt X-c2-na-X
 1427    1429    1466    1467         9       180.000       2.92880    2     ; N-C-C-C, prebuilt X-c2-ca-X
 1427    1429    1466    1468         9       180.000       2.92880    2     ; N-C-C-C, prebuilt X-c2-ca-X
 1427    1492    1491    1428         9       180.000      27.82360    2     ; N-C-C-N, prebuilt X-c2-c2-X
 1427    1492    1491    1496         9       180.000      27.82360    2     ; N-C-C-H, prebuilt X-c2-c2-X
 1427    1492    1493    1494         9         0.000       0.00000    2     ; N-C-C-F, prebuilt X-c2-c3-X
 1427    1492    1493    1495         9         0.000       0.00000    2     ; N-C-C-F, prebuilt X-c2-c3-X
 1427    1492    1493    1517         9         0.000       0.00000    2     ; N-C-C-F, prebuilt X-c2-c3-X
 1428    1429    1427    1492         9       180.000       2.61500    2     ; N-C-N-C, prebuilt X-c2-na-X
 1428    1429    1427    1518         9       180.000       2.61500    2     ; N-C-N-C, prebuilt X-c2-na-X
 1428    1429    1466    1467         9       180.000       2.92880    2     ; N-C-C-C, prebuilt X-c2-ca-X
 1428    1429    1466    1468         9       180.000       2.92880    2     ; N-C-C-C, prebuilt X-c2-ca-X
 1428    1430    1431    1432         9       180.000      15.16700    2     ; N-C-C-C, prebuilt X-ca-ca-X
 1428    1430    1431    1497         9       180.000      15.16700    2     ; N-C-C-H, prebuilt X-ca-ca-X
 1428    1430    1435    1434         9       180.000      15.16700    2     ; N-C-C-C, prebuilt X-ca-ca-X
 1428    1430    1435    1499         9       180.000      15.16700    2     ; N-C-C-H, prebuilt X-ca-ca-X
 1428    1491    1492    1493         9       180.000      27.82360    2     ; N-C-C-C, prebuilt X-c2-c2-X
 1429    1427    1492    1491         9       180.000       2.61500    2     ; C-N-C-C, prebuilt X-c2-na-X
 1429    1427    1492    1493         9       180.000       2.61500    2     ; C-N-C-C, prebuilt X-c2-na-X
 1429    1427    1518    1519         9         0.000       0.00000    2     ; C-N-C-H, prebuilt X-c3-na-X
 1429    1427    1518    1520         9         0.000       0.00000    2     ; C-N-C-H, prebuilt X-c3-na-X
 1429    1427    1518    1521         9         0.000       0.00000    2     ; C-N-C-H, prebuilt X-c3-na-X
 1429    1428    1430    1431         9       180.000       1.25520    2     ; C-N-C-C, prebuilt X-ca-na-X
 1429    1428    1430    1435         9       180.000       1.25520    2     ; C-N-C-C, prebuilt X-ca-na-X
 1429    1428    1491    1492         9       180.000       2.61500    2     ; C-N-C-C, prebuilt X-c2-na-X
 1429    1428    1491    1496         9       180.000       2.61500    2     ; C-N-C-H, prebuilt X-c2-na-X
 1429    1466    1467    1469         9       180.000      15.16700    2     ; C-C-C-C, prebuilt X-ca-ca-X
 1429    1466    1467    1508         9       180.000      15.16700    2     ; C-C-C-H, prebuilt X-ca-ca-X
 1429    1466    1468    1470         9       180.000      15.16700    2     ; C-C-C-C, prebuilt X-ca-ca-X
 1429    1466    1468    1510         9       180.000      15.16700    2     ; C-C-C-H, prebuilt X-ca-ca-X
 1430    1428    1429    1466         9       180.000       2.61500    2     ; C-N-C-C, prebuilt X-c2-na-X
 1430    1428    1491    1492         9       180.000       2.61500    2     ; C-N-C-C, prebuilt X-c2-na-X
 1430    1428    1491    1496         9       180.000       2.61500    2     ; C-N-C-H, prebuilt X-c2-na-X
 1430    1431    1432    1433         9       180.000      15.16700    2     ; C-C-C-C, prebuilt X-ca-ca-X
 1430    1431    1432    1498         9       180.000      15.16700    2     ; C-C-C-H, prebuilt X-ca-ca-X
 1430    1435    1434    1433         9       180.000      15.16700    2     ; C-C-C-C, prebuilt X-ca-ca-X
 1430    1435    1434    1500         9       180.000      15.16700    2     ; C-C-C-H, prebuilt X-ca-ca-X
 1431    1430    1428    1491         9       180.000       1.25520    2     ; C-C-N-C, prebuilt X-ca-na-X
 1431    1430    1435    1434         9       180.000      15.16700    2     ; C-C-C-C, prebuilt X-ca-ca-X
 1431    1430    1435    1499         9       180.000      15.16700    2     ; C-C-C-H, prebuilt X-ca-ca-X
 1431    1432    1433    1434         9       180.000      15.16700    2     ; C-C-C-C, prebuilt X-ca-ca-X
 1431    1432    1433    1436         9       180.000      15.16700    2     ; C-C-C-N, prebuilt X-ca-ca-X
 1432    1431    1430    1435         9       180.000      15.16700    2     ; C-C-C-C, prebuilt X-ca-ca-X
 1432    1433    1434    1435         9       180.000      15.16700    2     ; C-C-C-C, prebuilt X-ca-ca-X
 1432    1433    1434    1500         9       180.000      15.16700    2     ; C-C-C-H, prebuilt X-ca-ca-X
 1432    1433    1436    1437         9       180.000       1.88280    2     ; C-C-N-C, prebuilt X-ca-n-X
 1432    1433    1436    1440         9       180.000       1.88280    2     ; C-C-N-C, prebuilt X-ca-n-X
 1433    1432    1431    1497         9       180.000      15.16700    2     ; C-C-C-H, prebuilt X-ca-ca-X
 1433    1434    1435    1499         9       180.000      15.16700    2     ; C-C-C-H, prebuilt X-ca-ca-X
 1433    1436    1437    1438         9       180.000      10.46000    2     ; C-N-C-C, prebuilt X-c-n-X
 1433    1436    1437    1461         9       180.000      10.46000    2     ; C-N-C-O, prebuilt X-c-n-X
 1433    1436    1440    1439         9       180.000      10.46000    2     ; C-N-C-C, prebuilt X-c-n-X
 1433    1436    1440    1441         9       180.000      10.46000    2     ; C-N-C-O, prebuilt X-c-n-X
 1434    1433    1432    1498         9       180.000      15.16700    2     ; C-C-C-H, prebuilt X-ca-ca-X
 1434    1433    1436    1437         9       180.000       1.88280    2     ; C-C-N-C, prebuilt X-ca-n-X
 1434    1433    1436    1440         9       180.000       1.88280    2     ; C-C-N-C, prebuilt X-ca-n-X
 1435    1430    1428    1491         9       180.000       1.25520    2     ; C-C-N-C, prebuilt X-ca-na-X
 1435    1430    1431    1497         9       180.000      15.16700    2     ; C-C-C-H, prebuilt X-ca-ca-X
 1435    1434    1433    1436         9       180.000      15.16700    2     ; C-C-C-N, prebuilt X-ca-ca-X
 1436    1433    1432    1498         9       180.000      15.16700    2     ; N-C-C-H, prebuilt X-ca-ca-X
 1436    1433    1434    1500         9       180.000      15.16700    2     ; N-C-C-H, prebuilt X-ca-ca-X
 1436    1437    1438    1439         9       180.000       4.18400    2     ; N-C-C-C, prebuilt X-c-ca-X
 1436    1437    1438    1442         9       180.000       4.18400    2     ; N-C-C-C, prebuilt X-c-ca-X
 1436    1440    1439    1438         9       180.000       4.18400    2     ; N-C-C-C, prebuilt X-c-ca-X
 1436    1440    1439    1445         9       180.000       4.18400    2     ; N-C-C-C, prebuilt X-c-ca-X
 1437    1436    1440    1439         9       180.000      10.46000    2     ; C-N-C-C, prebuilt X-c-n-X
 1437    1436    1440    1441         9       180.000      10.46000    2     ; C-N-C-O, prebuilt X-c-n-X
 1437    1438    1439    1440         9       180.000      15.16700    2     ; C-C-C-C, prebuilt X-ca-ca-X
 1437    1438    1439    1445         9       180.000      15.16700    2     ; C-C-C-C, prebuilt X-ca-ca-X
 1437    1438    1442    1443         9       180.000      15.16700    2     ; C-C-C-C, prebuilt X-ca-ca-X
 1437    1438    1442    1501         9       180.000      15.16700    2     ; C-C-C-H, prebuilt X-ca-ca-X
 1438    1437    1436    1440         9       180.000      10.46000    2     ; C-C-N-C, prebuilt X-c-n-X
 1438    1439    1440    1441         9       180.000       4.18400    2     ; C-C-C-O, prebuilt X-c-ca-X
 1438    1439    1445    1444         9       180.000      15.16700    2     ; C-C-C-C, prebuilt X-ca-ca-X
 1438    1439    1445    1503         9       180.000      15.16700    2     ; C-C-C-H, prebuilt X-ca-ca-X
 1438    1442    1443    1444         9       180.000      15.16700    2     ; C-C-C-C, prebuilt X-ca-ca-X
 1438    1442    1443    1452         9       180.000      15.16700    2     ; C-C-C-C, prebuilt X-ca-ca-X
 1439    1438    1437    1461         9       180.000       4.18400    2     ; C-C-C-O, prebuilt X-c-ca-X
 1439    1438    1442    1443         9       180.000      15.16700    2     ; C-C-C-C, prebuilt X-ca-ca-X
 1439    1438    1442    1501         9       180.000      15.16700    2     ; C-C-C-H, prebuilt X-ca-ca-X
 1439    1445    1444    1443         9       180.000      15.16700    2     ; C-C-C-C, prebuilt X-ca-ca-X
 1439    1445    1444    1502         9       180.000      15.16700    2     ; C-C-C-H, prebuilt X-ca-ca-X
 1440    1436    1437    1461         9       180.000      10.46000    2     ; C-N-C-O, prebuilt X-c-n-X
 1440    1439    1438    1442         9       180.000      15.16700    2     ; C-C-C-C, prebuilt X-ca-ca-X
 1440    1439    1445    1444         9       180.000      15.16700    2     ; C-C-C-C, prebuilt X-ca-ca-X
 1440    1439    1445    1503         9       180.000      15.16700    2     ; C-C-C-H, prebuilt X-ca-ca-X
 1441    1440    1439    1445         9       180.000       4.18400    2     ; O-C-C-C, prebuilt X-c-ca-X
 1442    1438    1437    1461         9       180.000       4.18400    2     ; C-C-C-O, prebuilt X-c-ca-X
 1442    1438    1439    1445         9       180.000      15.16700    2     ; C-C-C-C, prebuilt X-ca-ca-X
 1442    1443    1444    1445         9       180.000      15.16700    2     ; C-C-C-C, prebuilt X-ca-ca-X
 1442    1443    1444    1502         9       180.000      15.16700    2     ; C-C-C-H, prebuilt X-ca-ca-X
 1442    1443    1452    1446         9         0.000       0.00000    2     ; C-C-C-C, prebuilt X-c3-ca-X
 1442    1443    1452    1453         9         0.000       0.00000    2     ; C-C-C-C, prebuilt X-c3-ca-X
 1442    1443    1452    1457         9         0.000       0.00000    2     ; C-C-C-C, prebuilt X-c3-ca-X
 1443    1444    1445    1503         9       180.000      15.16700    2     ; C-C-C-H, prebuilt X-ca-ca-X
 1443    1452    1446    1447         9         0.000       0.00000    2     ; C-C-C-C, prebuilt X-c3-ca-X
 1443    1452    1446    1449         9         0.000       0.00000    2     ; C-C-C-C, prebuilt X-c3-ca-X
 1443    1452    1453    1454         9         0.000       0.65084    3     ; C-C-C-F, prebuilt X-c3-c3-X
 1443    1452    1453    1455         9         0.000       0.65084    3     ; C-C-C-F, prebuilt X-c3-c3-X
 1443    1452    1453    1456         9         0.000       0.65084    3     ; C-C-C-F, prebuilt X-c3-c3-X
 1443    1452    1457    1458         9         0.000       0.65084    3     ; C-C-C-F, prebuilt X-c3-c3-X
 1443    1452    1457    1459         9         0.000       0.65084    3     ; C-C-C-F, prebuilt X-c3-c3-X
 1443    1452    1457    1460         9         0.000       0.65084    3     ; C-C-C-F, prebuilt X-c3-c3-X
 1444    1443    1442    1501         9       180.000      15.16700    2     ; C-C-C-H, prebuilt X-ca-ca-X
 1444    1443    1452    1446         9         0.000       0.00000    2     ; C-C-C-C, prebuilt X-c3-ca-X
 1444    1443    1452    1453         9         0.000       0.00000    2     ; C-C-C-C, prebuilt X-c3-ca-X
 1444    1443    1452    1457         9         0.000       0.00000    2     ; C-C-C-C, prebuilt X-c3-ca-X
 1445    1444    1443    1452         9       180.000      15.16700    2     ; C-C-C-C, prebuilt X-ca-ca-X
 1446    1447    1448    1450         9       180.000      15.16700    2     ; C-C-C-C, prebuilt X-ca-ca-X
 1446    1447    1448    1462         9       180.000      15.16700    2     ; C-C-C-C, prebuilt X-ca-ca-X
 1446    1449    1451    1450         9       180.000      15.16700    2     ; C-C-C-C, prebuilt X-ca-ca-X
 1446    1449    1451    1506         9       180.000      15.16700    2     ; C-C-C-H, prebuilt X-ca-ca-X
 1446    1452    1453    1454         9         0.000       0.65084    3     ; C-C-C-F, prebuilt X-c3-c3-X
 1446    1452    1453    1455         9         0.000       0.65084    3     ; C-C-C-F, prebuilt X-c3-c3-X
 1446    1452    1453    1456         9         0.000       0.65084    3     ; C-C-C-F, prebuilt X-c3-c3-X
 1446    1452    1457    1458         9         0.000       0.65084    3     ; C-C-C-F, prebuilt X-c3-c3-X
 1446    1452    1457    1459         9         0.000       0.65084    3     ; C-C-C-F, prebuilt X-c3-c3-X
 1446    1452    1457    1460         9         0.000       0.65084    3     ; C-C-C-F, prebuilt X-c3-c3-X
 1447    1446    1449    1451         9       180.000      15.16700    2     ; C-C-C-C, prebuilt X-ca-ca-X
 1447    1446    1449    1504         9       180.000      15.16700    2     ; C-C-C-H, prebuilt X-ca-ca-X
 1447    1446    1452    1453         9         0.000       0.00000    2     ; C-C-C-C, prebuilt X-c3-ca-X
 1447    1446    1452    1457         9         0.000       0.00000    2     ; C-C-C-C, prebuilt X-c3-ca-X
 1447    1448    1450    1451         9       180.000      15.16700    2     ; C-C-C-C, prebuilt X-ca-ca-X
 1447    1448    1450    1464         9       180.000      15.16700    2     ; C-C-C-C, prebuilt X-ca-ca-X
 1447    1448    1462    1463         9       180.000       4.18400    2     ; C-C-C-N, prebuilt X-c-ca-X
 1447    1448    1462    1507         9       180.000       4.18400    2     ; C-C-C-O, prebuilt X-c-ca-X
 1448    1447    1446    1449         9       180.000      15.16700    2     ; C-C-C-C, prebuilt X-ca-ca-X
 1448    1447    1446    1452         9       180.000      15.16700    2     ; C-C-C-C, prebuilt X-ca-ca-X
 1448    1450    1451    1449         9       180.000      15.16700    2     ; C-C-C-C, prebuilt X-ca-ca-X
 1448    1450    1451    1506         9       180.000      15.16700    2     ; C-C-C-H, prebuilt X-ca-ca-X
 1448    1450    1464    1463         9       180.000       4.18400    2     ; C-C-C-N, prebuilt X-c-ca-X
 1448    1450    1464    1465         9       180.000       4.18400    2     ; C-C-C-O, prebuilt X-c-ca-X
 1448    1462    1463    1464         9       180.000      10.46000    2     ; C-C-N-C, prebuilt X-c-n-X
 1448    1462    1463    1579         9       180.000      10.46000    2     ; C-C-N-C, prebuilt X-c-n-X
 1449    1446    1447    1505         9       180.000      15.16700    2     ; C-C-C-H, prebuilt X-ca-ca-X
 1449    1446    1452    1453         9         0.000       0.00000    2     ; C-C-C-C, prebuilt X-c3-ca-X
 1449    1446    1452    1457         9         0.000       0.00000    2     ; C-C-C-C, prebuilt X-c3-ca-X
 1449    1451    1450    1464         9       180.000      15.16700    2     ; C-C-C-C, prebuilt X-ca-ca-X
 1450    1448    1447    1505         9       180.000      15.16700    2     ; C-C-C-H, prebuilt X-ca-ca-X
 1450    1448    1462    1463         9       180.000       4.18400    2     ; C-C-C-N, prebuilt X-c-ca-X
 1450    1448    1462    1507         9       180.000       4.18400    2     ; C-C-C-O, prebuilt X-c-ca-X
 1450    1451    1449    1504         9       180.000      15.16700    2     ; C-C-C-H, prebuilt X-ca-ca-X
 1450    1464    1463    1462         9       180.000      10.46000    2     ; C-C-N-C, prebuilt X-c-n-X
 1450    1464    1463    1579         9       180.000      10.46000    2     ; C-C-N-C, prebuilt X-c-n-X
 1451    1449    1446    1452         9       180.000      15.16700    2     ; C-C-C-C, prebuilt X-ca-ca-X
 1451    1450    1448    1462         9       180.000      15.16700    2     ; C-C-C-C, prebuilt X-ca-ca-X
 1451    1450    1464    1463         9       180.000       4.18400    2     ; C-C-C-N, prebuilt X-c-ca-X
 1451    1450    1464    1465         9       180.000       4.18400    2     ; C-C-C-O, prebuilt X-c-ca-X
 1452    1443    1442    1501         9       180.000      15.16700    2     ; C-C-C-H, prebuilt X-ca-ca-X
 1452    1443    1444    1502         9       180.000      15.16700    2     ; C-C-C-H, prebuilt X-ca-ca-X
 1452    1446    1447    1505         9       180.000      15.16700    2     ; C-C-C-H, prebuilt X-ca-ca-X
 1452    1446    1449    1504         9       180.000      15.16700    2     ; C-C-C-H, prebuilt X-ca-ca-X
 1453    1452    1457    1458         9         0.000       0.65084    3     ; C-C-C-F, prebuilt X-c3-c3-X
 1453    1452    1457    1459         9         0.000       0.65084    3     ; C-C-C-F, prebuilt X-c3-c3-X
 1453    1452    1457    1460         9         0.000       0.65084    3     ; C-C-C-F, prebuilt X-c3-c3-X
 1454    1453    1452    1457         9         0.000       0.65084    3     ; F-C-C-C, prebuilt X-c3-c3-X
 1455    1453    1452    1457         9         0.000       0.65084    3     ; F-C-C-C, prebuilt X-c3-c3-X
 1456    1453    1452    1457         9         0.000       0.65084    3     ; F-C-C-C, prebuilt X-c3-c3-X
 1462    1448    1447    1505         9       180.000      15.16700    2     ; C-C-C-H, prebuilt X-ca-ca-X
 1462    1448    1450    1464         9       180.000      15.16700    2     ; C-C-C-C, prebuilt X-ca-ca-X
 1462    1463    1464    1465         9       180.000      10.46000    2     ; C-N-C-O, prebuilt X-c-n-X
 1462    1463    1579    1578         9       180.000       1.88280    2     ; C-N-C-C, prebuilt X-ca-n-X
 1462    1463    1579    1580         9       180.000       1.88280    2     ; C-N-C-C, prebuilt X-ca-n-X
 1463    1579    1578    1577         9       180.000      15.16700    2     ; N-C-C-C, prebuilt X-ca-ca-X
 1463    1579    1578    1606         9       180.000      15.16700    2     ; N-C-C-H, prebuilt X-ca-ca-X
 1463    1579    1580    1581         9       180.000      15.16700    2     ; N-C-C-C, prebuilt X-ca-ca-X
 1463    1579    1580    1608         9       180.000      15.16700    2     ; N-C-C-H, prebuilt X-ca-ca-X
 1464    1450    1451    1506         9       180.000      15.16700    2     ; C-C-C-H, prebuilt X-ca-ca-X
 1464    1463    1462    1507         9       180.000      10.46000    2     ; C-N-C-O, prebuilt X-c-n-X
 1464    1463    1579    1578         9       180.000       1.88280    2     ; C-N-C-C, prebuilt X-ca-n-X
 1464    1463    1579    1580         9       180.000       1.88280    2     ; C-N-C-C, prebuilt X-ca-n-X
 1465    1464    1463    1579         9       180.000      10.46000    2     ; O-C-N-C, prebuilt X-c-n-X
 1466    1429    1427    1492         9       180.000       2.61500    2     ; C-C-N-C, prebuilt X-c2-na-X
 1466    1429    1427    1518         9       180.000       2.61500    2     ; C-C-N-C, prebuilt X-c2-na-X
 1466    1429    1428    1491         9       180.000       2.61500    2     ; C-C-N-C, prebuilt X-c2-na-X
 1466    1467    1469    1471         9       180.000      15.16700    2     ; C-C-C-C, prebuilt X-ca-ca-X
 1466    1467    1469    1509         9       180.000      15.16700    2     ; C-C-C-H, prebuilt X-ca-ca-X
 1466    1468    1470    1471         9       180.000      15.16700    2     ; C-C-C-C, prebuilt X-ca-ca-X
 1466    1468    1470    1516         9       180.000      15.16700    2     ; C-C-C-H, prebuilt X-ca-ca-X
 1467    1466    1468    1470         9       180.000      15.16700    2     ; C-C-C-C, prebuilt X-ca-ca-X
 1467    1466    1468    1510         9       180.000      15.16700    2     ; C-C-C-H, prebuilt X-ca-ca-X
 1467    1469    1471    1470         9       180.000      15.16700    2     ; C-C-C-C, prebuilt X-ca-ca-X
 1467    1469    1471    1472         9       180.000      15.16700    2     ; C-C-C-C, prebuilt X-ca-ca-X
 1468    1466    1467    1469         9       180.000      15.16700    2     ; C-C-C-C, prebuilt X-ca-ca-X
 1468    1466    1467    1508         9       180.000      15.16700    2     ; C-C-C-H, prebuilt X-ca-ca-X
 1468    1470    1471    1469         9       180.000      15.16700    2     ; C-C-C-C, prebuilt X-ca-ca-X
 1468    1470    1471    1472         9       180.000      15.16700    2     ; C-C-C-C, prebuilt X-ca-ca-X
 1469    1471    1470    1516         9       180.000      15.16700    2     ; C-C-C-H, prebuilt X-ca-ca-X
 1469    1471    1472    1473         9       180.000       2.92880    2     ; C-C-C-N, prebuilt X-c2-ca-X
 1469    1471    1472    1474         9       180.000       2.92880    2     ; C-C-C-N, prebuilt X-c2-ca-X
 1470    1471    1469    1509         9       180.000      15.16700    2     ; C-C-C-H, prebuilt X-ca-ca-X
 1470    1471    1472    1473         9       180.000       2.92880    2     ; C-C-C-N, prebuilt X-c2-ca-X
 1470    1471    1472    1474         9       180.000       2.92880    2     ; C-C-C-N, prebuilt X-c2-ca-X
 1471    1469    1467    1508         9       180.000      15.16700    2     ; C-C-C-H, prebuilt X-ca-ca-X
 1471    1470    1468    1510         9       180.000      15.16700    2     ; C-C-C-H, prebuilt X-ca-ca-X
 1471    1472    1473    1475         9       180.000       2.61500    2     ; C-C-N-C, prebuilt X-c2-na-X
 1471    1472    1473    1481         9       180.000       2.61500    2     ; C-C-N-C, prebuilt X-c2-na-X
 1471    1472    1474    1476         9       180.000       2.61500    2     ; C-C-N-C, prebuilt X-c2-na-X
 1471    1472    1474    1477         9       180.000       2.61500    2     ; C-C-N-C, prebuilt X-c2-na-X
 1472    1471    1469    1509         9       180.000      15.16700    2     ; C-C-C-H, prebuilt X-ca-ca-X
 1472    1471    1470    1516         9       180.000      15.16700    2     ; C-C-C-H, prebuilt X-ca-ca-X
 1472    1473    1475    1476         9       180.000       2.61500    2     ; C-N-C-C, prebuilt X-c2-na-X
 1472    1473    1475    1515         9       180.000       2.61500    2     ; C-N-C-H, prebuilt X-c2-na-X
 1472    1473    1481    1482         9       180.000       1.25520    2     ; C-N-C-C, prebuilt X-ca-na-X
 1472    1473    1481    1486         9       180.000       1.25520    2     ; C-N-C-C, prebuilt X-ca-na-X
 1472    1474    1476    1475         9       180.000       2.61500    2     ; C-N-C-C, prebuilt X-c2-na-X
 1472    1474    1476    1487         9       180.000       2.61500    2     ; C-N-C-C, prebuilt X-c2-na-X
 1472    1474    1477    1478         9         0.000       0.00000    2     ; C-N-C-H, prebuilt X-c3-na-X
 1472    1474    1477    1479         9         0.000       0.00000    2     ; C-N-C-H, prebuilt X-c3-na-X
 1472    1474    1477    1480         9         0.000       0.00000    2     ; C-N-C-H, prebuilt X-c3-na-X
 1473    1472    1474    1476         9       180.000       2.61500    2     ; N-C-N-C, prebuilt X-c2-na-X
 1473    1472    1474    1477         9       180.000       2.61500    2     ; N-C-N-C, prebuilt X-c2-na-X
 1473    1475    1476    1474         9       180.000      27.82360    2     ; N-C-C-N, prebuilt X-c2-c2-X
 1473    1475    1476    1487         9       180.000      27.82360    2     ; N-C-C-C, prebuilt X-c2-c2-X
 1473    1481    1482    1483         9       180.000      15.16700    2     ; N-C-C-C, prebuilt X-ca-ca-X
 1473    1481    1482    1512         9       180.000      15.16700    2     ; N-C-C-H, prebuilt X-ca-ca-X
 1473    1481    1486    1485         9       180.000      15.16700    2     ; N-C-C-C, prebuilt X-ca-ca-X
 1473    1481    1486    1514         9       180.000      15.16700    2     ; N-C-C-H, prebuilt X-ca-ca-X
 1474    1472    1473    1475         9       180.000       2.61500    2     ; N-C-N-C, prebuilt X-c2-na-X
 1474    1472    1473    1481         9       180.000       2.61500    2     ; N-C-N-C, prebuilt X-c2-na-X
 1474    1476    1475    1515         9       180.000      27.82360    2     ; N-C-C-H, prebuilt X-c2-c2-X
 1474    1476    1487    1488         9         0.000       0.00000    2     ; N-C-C-F, prebuilt X-c2-c3-X
 1474    1476    1487    1489         9         0.000       0.00000    2     ; N-C-C-F, prebuilt X-c2-c3-X
 1474    1476    1487    1490         9         0.000       0.00000    2     ; N-C-C-F, prebuilt X-c2-c3-X
 1475    1473    1481    1482         9       180.000       1.25520    2     ; C-N-C-C, prebuilt X-ca-na-X
 1475    1473    1481    1486         9       180.000       1.25520    2     ; C-N-C-C, prebuilt X-ca-na-X
 1475    1476    1474    1477         9       180.000       2.61500    2     ; C-C-N-C, prebuilt X-c2-na-X
 1475    1476    1487    1488         9         0.000       0.00000    2     ; C-C-C-F, prebuilt X-c2-c3-X
 1475    1476    1487    1489         9         0.000       0.00000    2     ; C-C-C-F, prebuilt X-c2-c3-X
 1475    1476    1487    1490         9         0.000       0.00000    2     ; C-C-C-F, prebuilt X-c2-c3-X
 1476    1474    1477    1478         9         0.000       0.00000    2     ; C-N-C-H, prebuilt X-c3-na-X
 1476    1474    1477    1479         9         0.000       0.00000    2     ; C-N-C-H, prebuilt X-c3-na-X
 1476    1474    1477    1480         9         0.000       0.00000    2     ; C-N-C-H, prebuilt X-c3-na-X
 1476    1475    1473    1481         9       180.000       2.61500    2     ; C-C-N-C, prebuilt X-c2-na-X
 1477    1474    1476    1487         9       180.000       2.61500    2     ; C-N-C-C, prebuilt X-c2-na-X
 1481    1473    1475    1515         9       180.000       2.61500    2     ; C-N-C-H, prebuilt X-c2-na-X
 1481    1482    1483    1484         9       180.000      15.16700    2     ; C-C-C-C, prebuilt X-ca-ca-X
 1481    1482    1483    1511         9       180.000      15.16700    2     ; C-C-C-H, prebuilt X-ca-ca-X
 1481    1486    1485    1484         9       180.000      15.16700    2     ; C-C-C-C, prebuilt X-ca-ca-X
 1481    1486    1485    1513         9       180.000      15.16700    2     ; C-C-C-H, prebuilt X-ca-ca-X
 1482    1481    1486    1485         9       180.000      15.16700    2     ; C-C-C-C, prebuilt X-ca-ca-X
 1482    1481    1486    1514         9       180.000      15.16700    2     ; C-C-C-H, prebuilt X-ca-ca-X
 1482    1483    1484    1485         9       180.000      15.16700    2     ; C-C-C-C, prebuilt X-ca-ca-X
 1483    1482    1481    1486         9       180.000      15.16700    2     ; C-C-C-C, prebuilt X-ca-ca-X
 1483    1484    1485    1486         9       180.000      15.16700    2     ; C-C-C-C, prebuilt X-ca-ca-X
 1483    1484    1485    1513         9       180.000      15.16700    2     ; C-C-C-H, prebuilt X-ca-ca-X
 1484    1483    1482    1512         9       180.000      15.16700    2     ; C-C-C-H, prebuilt X-ca-ca-X
 1484    1485    1486    1514         9       180.000      15.16700    2     ; C-C-C-H, prebuilt X-ca-ca-X
 1485    1484    1483    1511         9       180.000      15.16700    2     ; C-C-C-H, prebuilt X-ca-ca-X
 1486    1481    1482    1512         9       180.000      15.16700    2     ; C-C-C-H, prebuilt X-ca-ca-X
 1487    1476    1475    1515         9       180.000      27.82360    2     ; C-C-C-H, prebuilt X-c2-c2-X
 1491    1492    1427    1518         9       180.000       2.61500    2     ; C-C-N-C, prebuilt X-c2-na-X
 1491    1492    1493    1494         9         0.000       0.00000    2     ; C-C-C-F, prebuilt X-c2-c3-X
 1491    1492    1493    1495         9         0.000       0.00000    2     ; C-C-C-F, prebuilt X-c2-c3-X
 1491    1492    1493    1517         9         0.000       0.00000    2     ; C-C-C-F, prebuilt X-c2-c3-X
 1492    1427    1518    1519         9         0.000       0.00000    2     ; C-N-C-H, prebuilt X-c3-na-X
 1492    1427    1518    1520         9         0.000       0.00000    2     ; C-N-C-H, prebuilt X-c3-na-X
 1492    1427    1518    1521         9         0.000       0.00000    2     ; C-N-C-H, prebuilt X-c3-na-X
 1493    1492    1427    1518         9       180.000       2.61500    2     ; C-C-N-C, prebuilt X-c2-na-X
 1493    1492    1491    1496         9       180.000      27.82360    2     ; C-C-C-H, prebuilt X-c2-c2-X
 1497    1431    1432    1498         9       180.000      15.16700    2     ; H-C-C-H, prebuilt X-ca-ca-X
 1499    1435    1434    1500         9       180.000      15.16700    2     ; H-C-C-H, prebuilt X-ca-ca-X
 1502    1444    1445    1503         9       180.000      15.16700    2     ; H-C-C-H, prebuilt X-ca-ca-X
 1504    1449    1451    1506         9       180.000      15.16700    2     ; H-C-C-H, prebuilt X-ca-ca-X
 1507    1462    1463    1579         9       180.000      10.46000    2     ; O-C-N-C, prebuilt X-c-n-X
 1508    1467    1469    1509         9       180.000      15.16700    2     ; H-C-C-H, prebuilt X-ca-ca-X
 1510    1468    1470    1516         9       180.000      15.16700    2     ; H-C-C-H, prebuilt X-ca-ca-X
 1511    1483    1482    1512         9       180.000      15.16700    2     ; H-C-C-H, prebuilt X-ca-ca-X
 1513    1485    1486    1514         9       180.000      15.16700    2     ; H-C-C-H, prebuilt X-ca-ca-X
 1522    1524    1523    1525         9       180.000       2.61500    2     ; N-C-N-C, prebuilt X-c2-na-X
 1522    1524    1523    1586         9       180.000       2.61500    2     ; N-C-N-C, prebuilt X-c2-na-X
 1522    1524    1561    1562         9       180.000       2.92880    2     ; N-C-C-C, prebuilt X-c2-ca-X
 1522    1524    1561    1563         9       180.000       2.92880    2     ; N-C-C-C, prebuilt X-c2-ca-X
 1522    1587    1586    1523         9       180.000      27.82360    2     ; N-C-C-N, prebuilt X-c2-c2-X
 1522    1587    1586    1591         9       180.000      27.82360    2     ; N-C-C-H, prebuilt X-c2-c2-X
 1522    1587    1588    1589         9         0.000       0.00000    2     ; N-C-C-F, prebuilt X-c2-c3-X
 1522    1587    1588    1590         9         0.000       0.00000    2     ; N-C-C-F, prebuilt X-c2-c3-X
 1522    1587    1588    1612         9         0.000       0.00000    2     ; N-C-C-F, prebuilt X-c2-c3-X
 1523    1524    1522    1587         9       180.000       2.61500    2     ; N-C-N-C, prebuilt X-c2-na-X
 1523    1524    1522    1613         9       180.000       2.61500    2     ; N-C-N-C, prebuilt X-c2-na-X
 1523    1524    1561    1562         9       180.000       2.92880    2     ; N-C-C-C, prebuilt X-c2-ca-X
 1523    1524    1561    1563         9       180.000       2.92880    2     ; N-C-C-C, prebuilt X-c2-ca-X
 1523    1525    1526    1527         9       180.000      15.16700    2     ; N-C-C-C, prebuilt X-ca-ca-X
 1523    1525    1526    1592         9       180.000      15.16700    2     ; N-C-C-H, prebuilt X-ca-ca-X
 1523    1525    1530    1529         9       180.000      15.16700    2     ; N-C-C-C, prebuilt X-ca-ca-X
 1523    1525    1530    1594         9       180.000      15.16700    2     ; N-C-C-H, prebuilt X-ca-ca-X
 1523    1586    1587    1588         9       180.000      27.82360    2     ; N-C-C-C, prebuilt X-c2-c2-X
 1524    1522    1587    1586         9       180.000       2.61500    2     ; C-N-C-C, prebuilt X-c2-na-X
 1524    1522    1587    1588         9       180.000       2.61500    2     ; C-N-C-C, prebuilt X-c2-na-X
 1524    1522    1613    1614         9         0.000       0.00000    2     ; C-N-C-H, prebuilt X-c3-na-X
 1524    1522    1613    1615         9         0.000       0.00000    2     ; C-N-C-H, prebuilt X-c3-na-X
 1524    1522    1613    1616         9         0.000       0.00000    2     ; C-N-C-H, prebuilt X-c3-na-X
 1524    1523    1525    1526         9       180.000       1.25520    2     ; C-N-C-C, prebuilt X-ca-na-X
 1524    1523    1525    1530         9       180.000       1.25520    2     ; C-N-C-C, prebuilt X-ca-na-X
 1524    1523    1586    1587         9       180.000       2.61500    2     ; C-N-C-C, prebuilt X-c2-na-X
 1524    1523    1586    1591         9       180.000       2.61500    2     ; C-N-C-H, prebuilt X-c2-na-X
 1524    1561    1562    1564         9       180.000      15.16700    2     ; C-C-C-C, prebuilt X-ca-ca-X
 1524    1561    1562    1603         9       180.000      15.16700    2     ; C-C-C-H, prebuilt X-ca-ca-X
 1524    1561    1563    1565         9       180.000      15.16700    2     ; C-C-C-C, prebuilt X-ca-ca-X
 1524    1561    1563    1605         9       180.000      15.16700    2     ; C-C-C-H, prebuilt X-ca-ca-X
 1525    1523    1524    1561         9       180.000       2.61500    2     ; C-N-C-C, prebuilt X-c2-na-X
 1525    1523    1586    1587         9       180.000       2.61500    2     ; C-N-C-C, prebuilt X-c2-na-X
 1525    1523    1586    1591         9       180.000       2.61500    2     ; C-N-C-H, prebuilt X-c2-na-X
 1525    1526    1527    1528         9       180.000      15.16700    2     ; C-C-C-C, prebuilt X-ca-ca-X
 1525    1526    1527    1593         9       180.000      15.16700    2     ; C-C-C-H, prebuilt X-ca-ca-X
 1525    1530    1529    1528         9       180.000      15.16700    2     ; C-C-C-C, prebuilt X-ca-ca-X
 1525    1530    1529    1595         9       180.000      15.16700    2     ; C-C-C-H, prebuilt X-ca-ca-X
 1526    1525    1523    1586         9       180.000       1.25520    2     ; C-C-N-C, prebuilt X-ca-na-X
 1526    1525    1530    1529         9       180.000      15.16700    2     ; C-C-C-C, prebuilt X-ca-ca-X
 1526    1525    1530    1594         9       180.000      15.16700    2     ; C-C-C-H, prebuilt X-ca-ca-X
 1526    1527    1528    1529         9       180.000      15.16700    2     ; C-C-C-C, prebuilt X-ca-ca-X
 1526    1527    1528    1531         9       180.000      15.16700    2     ; C-C-C-N, prebuilt X-ca-ca-X
 1527    1526    1525    1530         9       180.000      15.16700    2     ; C-C-C-C, prebuilt X-ca-ca-X
 1527    1528    1529    1530         9       180.000      15.16700    2     ; C-C-C-C, prebuilt X-ca-ca-X
 1527    1528    1529    1595         9       180.000      15.16700    2     ; C-C-C-H, prebuilt X-ca-ca-X
 1527    1528    1531    1532         9       180.000       1.88280    2     ; C-C-N-C, prebuilt X-ca-n-X
 1527    1528    1531    1535         9       180.000       1.88280    2     ; C-C-N-C, prebuilt X-ca-n-X
 1528    1527    1526    1592         9       180.000      15.16700    2     ; C-C-C-H, prebuilt X-ca-ca-X
 1528    1529    1530    1594         9       180.000      15.16700    2     ; C-C-C-H, prebuilt X-ca-ca-X
 1528    1531    1532    1533         9       180.000      10.46000    2     ; C-N-C-C, prebuilt X-c-n-X
 1528    1531    1532    1556         9       180.000      10.46000    2     ; C-N-C-O, prebuilt X-c-n-X
 1528    1531    1535    1534         9       180.000      10.46000    2     ; C-N-C-C, prebuilt X-c-n-X
 1528    1531    1535    1536         9       180.000      10.46000    2     ; C-N-C-O, prebuilt X-c-n-X
 1529    1528    1527    1593         9       180.000      15.16700    2     ; C-C-C-H, prebuilt X-ca-ca-X
 1529    1528    1531    1532         9       180.000       1.88280    2     ; C-C-N-C, prebuilt X-ca-n-X
 1529    1528    1531    1535         9       180.000       1.88280    2     ; C-C-N-C, prebuilt X-ca-n-X
 1530    1525    1523    1586         9       180.000       1.25520    2     ; C-C-N-C, prebuilt X-ca-na-X
 1530    1525    1526    1592         9       180.000      15.16700    2     ; C-C-C-H, prebuilt X-ca-ca-X
 1530    1529    1528    1531         9       180.000      15.16700    2     ; C-C-C-N, prebuilt X-ca-ca-X
 1531    1528    1527    1593         9       180.000      15.16700    2     ; N-C-C-H, prebuilt X-ca-ca-X
 1531    1528    1529    1595         9       180.000      15.16700    2     ; N-C-C-H, prebuilt X-ca-ca-X
 1531    1532    1533    1534         9       180.000       4.18400    2     ; N-C-C-C, prebuilt X-c-ca-X
 1531    1532    1533    1537         9       180.000       4.18400    2     ; N-C-C-C, prebuilt X-c-ca-X
 1531    1535    1534    1533         9       180.000       4.18400    2     ; N-C-C-C, prebuilt X-c-ca-X
 1531    1535    1534    1540         9       180.000       4.18400    2     ; N-C-C-C, prebuilt X-c-ca-X
 1532    1531    1535    1534         9       180.000      10.46000    2     ; C-N-C-C, prebuilt X-c-n-X
 1532    1531    1535    1536         9       180.000      10.46000    2     ; C-N-C-O, prebuilt X-c-n-X
 1532    1533    1534    1535         9       180.000      15.16700    2     ; C-C-C-C, prebuilt X-ca-ca-X
 1532    1533    1534    1540         9       180.000      15.16700    2     ; C-C-C-C, prebuilt X-ca-ca-X
 1532    1533    1537    1538         9       180.000      15.16700    2     ; C-C-C-C, prebuilt X-ca-ca-X
 1532    1533    1537    1596         9       180.000      15.16700    2     ; C-C-C-H, prebuilt X-ca-ca-X
 1533    1532    1531    1535         9       180.000      10.46000    2     ; C-C-N-C, prebuilt X-c-n-X
 1533    1534    1535    1536         9       180.000       4.18400    2     ; C-C-C-O, prebuilt X-c-ca-X
 1533    1534    1540    1539         9       180.000      15.16700    2     ; C-C-C-C, prebuilt X-ca-ca-X
 1533    1534    1540    1598         9       180.000      15.16700    2     ; C-C-C-H, prebuilt X-ca-ca-X
 1533    1537    1538    1539         9       180.000      15.16700    2     ; C-C-C-C, prebuilt X-ca-ca-X
 1533    1537    1538    1547         9       180.000      15.16700    2     ; C-C-C-C, prebuilt X-ca-ca-X
 1534    1533    1532    1556         9       180.000       4.18400    2     ; C-C-C-O, prebuilt X-c-ca-X
 1534    1533    1537    1538         9       180.000      15.16700    2     ; C-C-C-C, prebuilt X-ca-ca-X
 1534    1533    1537    1596         9       180.000      15.16700    2     ; C-C-C-H, prebuilt X-ca-ca-X
 1534    1540    1539    1538         9       180.000      15.16700    2     ; C-C-C-C, prebuilt X-ca-ca-X
 1534    1540    1539    1597         9       180.000      15.16700    2     ; C-C-C-H, prebuilt X-ca-ca-X
 1535    1531    1532    1556         9       180.000      10.46000    2     ; C-N-C-O, prebuilt X-c-n-X
 1535    1534    1533    1537         9       180.000      15.16700    2     ; C-C-C-C, prebuilt X-ca-ca-X
 1535    1534    1540    1539         9       180.000      15.16700    2     ; C-C-C-C, prebuilt X-ca-ca-X
 1535    1534    1540    1598         9       180.000      15.16700    2     ; C-C-C-H, prebuilt X-ca-ca-X
 1536    1535    1534    1540         9       180.000       4.18400    2     ; O-C-C-C, prebuilt X-c-ca-X
 1537    1533    1532    1556         9       180.000       4.18400    2     ; C-C-C-O, prebuilt X-c-ca-X
 1537    1533    1534    1540         9       180.000      15.16700    2     ; C-C-C-C, prebuilt X-ca-ca-X
 1537    1538    1539    1540         9       180.000      15.16700    2     ; C-C-C-C, prebuilt X-ca-ca-X
 1537    1538    1539    1597         9       180.000      15.16700    2     ; C-C-C-H, prebuilt X-ca-ca-X
 1537    1538    1547    1541         9         0.000       0.00000    2     ; C-C-C-C, prebuilt X-c3-ca-X
 1537    1538    1547    1548         9         0.000       0.00000    2     ; C-C-C-C, prebuilt X-c3-ca-X
 1537    1538    1547    1552         9         0.000       0.00000    2     ; C-C-C-C, prebuilt X-c3-ca-X
 1538    1539    1540    1598         9       180.000      15.16700    2     ; C-C-C-H, prebuilt X-ca-ca-X
 1538    1547    1541    1542         9         0.000       0.00000    2     ; C-C-C-C, prebuilt X-c3-ca-X
 1538    1547    1541    1544         9         0.000       0.00000    2     ; C-C-C-C, prebuilt X-c3-ca-X
 1538    1547    1548    1549         9         0.000       0.65084    3     ; C-C-C-F, prebuilt X-c3-c3-X
 1538    1547    1548    1550         9         0.000       0.65084    3     ; C-C-C-F, prebuilt X-c3-c3-X
 1538    1547    1548    1551         9         0.000       0.65084    3     ; C-C-C-F, prebuilt X-c3-c3-X
 1538    1547    1552    1553         9         0.000       0.65084    3     ; C-C-C-F, prebuilt X-c3-c3-X
 1538    1547    1552    1554         9         0.000       0.65084    3     ; C-C-C-F, prebuilt X-c3-c3-X
 1538    1547    1552    1555         9         0.000       0.65084    3     ; C-C-C-F, prebuilt X-c3-c3-X
 1539    1538    1537    1596         9       180.000      15.16700    2     ; C-C-C-H, prebuilt X-ca-ca-X
 1539    1538    1547    1541         9         0.000       0.00000    2     ; C-C-C-C, prebuilt X-c3-ca-X
 1539    1538    1547    1548         9         0.000       0.00000    2     ; C-C-C-C, prebuilt X-c3-ca-X
 1539    1538    1547    1552         9         0.000       0.00000    2     ; C-C-C-C, prebuilt X-c3-ca-X
 1540    1539    1538    1547         9       180.000      15.16700    2     ; C-C-C-C, prebuilt X-ca-ca-X
 1541    1542    1543    1545         9       180.000      15.16700    2     ; C-C-C-C, prebuilt X-ca-ca-X
 1541    1542    1543    1557         9       180.000      15.16700    2     ; C-C-C-C, prebuilt X-ca-ca-X
 1541    1544    1546    1545         9       180.000      15.16700    2     ; C-C-C-C, prebuilt X-ca-ca-X
 1541    1544    1546    1601         9       180.000      15.16700    2     ; C-C-C-H, prebuilt X-ca-ca-X
 1541    1547    1548    1549         9         0.000       0.65084    3     ; C-C-C-F, prebuilt X-c3-c3-X
 1541    1547    1548    1550         9         0.000       0.65084    3     ; C-C-C-F, prebuilt X-c3-c3-X
 1541    1547    1548    1551         9         0.000       0.65084    3     ; C-C-C-F, prebuilt X-c3-c3-X
 1541    1547    1552    1553         9         0.000       0.65084    3     ; C-C-C-F, prebuilt X-c3-c3-X
 1541    1547    1552    1554         9         0.000       0.65084    3     ; C-C-C-F, prebuilt X-c3-c3-X
 1541    1547    1552    1555         9         0.000       0.65084    3     ; C-C-C-F, prebuilt X-c3-c3-X
 1542    1541    1544    1546         9       180.000      15.16700    2     ; C-C-C-C, prebuilt X-ca-ca-X
 1542    1541    1544    1599         9       180.000      15.16700    2     ; C-C-C-H, prebuilt X-ca-ca-X
 1542    1541    1547    1548         9         0.000       0.00000    2     ; C-C-C-C, prebuilt X-c3-ca-X
 1542    1541    1547    1552         9         0.000       0.00000    2     ; C-C-C-C, prebuilt X-c3-ca-X
 1542    1543    1545    1546         9       180.000      15.16700    2     ; C-C-C-C, prebuilt X-ca-ca-X
 1542    1543    1545    1559         9       180.000      15.16700    2     ; C-C-C-C, prebuilt X-ca-ca-X
 1542    1543    1557    1558         9       180.000       4.18400    2     ; C-C-C-N, prebuilt X-c-ca-X
 1542    1543    1557    1602         9       180.000       4.18400    2     ; C-C-C-O, prebuilt X-c-ca-X
 1543    1542    1541    1544         9       180.000      15.16700    2     ; C-C-C-C, prebuilt X-ca-ca-X
 1543    1542    1541    1547         9       180.000      15.16700    2     ; C-C-C-C, prebuilt X-ca-ca-X
 1543    1545    1546    1544         9       180.000      15.16700    2     ; C-C-C-C, prebuilt X-ca-ca-X
 1543    1545    1546    1601         9       180.000      15.16700    2     ; C-C-C-H, prebuilt X-ca-ca-X
 1543    1545    1559    1558         9       180.000       4.18400    2     ; C-C-C-N, prebuilt X-c-ca-X
 1543    1545    1559    1560         9       180.000       4.18400    2     ; C-C-C-O, prebuilt X-c-ca-X
 1543    1557    1558    1559         9       180.000      10.46000    2     ; C-C-N-C, prebuilt X-c-n-X
 1543    1557    1558    1674         9       180.000      10.46000    2     ; C-C-N-C, prebuilt X-c-n-X
 1544    1541    1542    1600         9       180.000      15.16700    2     ; C-C-C-H, prebuilt X-ca-ca-X
 1544    1541    1547    1548         9         0.000       0.00000    2     ; C-C-C-C, prebuilt X-c3-ca-X
 1544    1541    1547    1552         9         0.000       0.00000    2     ; C-C-C-C, prebuilt X-c3-ca-X
 1544    1546    1545    1559         9       180.000      15.16700    2     ; C-C-C-C, prebuilt X-ca-ca-X
 1545    1543    1542    1600         9       180.000      15.16700    2     ; C-C-C-H, prebuilt X-ca-ca-X
 1545    1543    1557    1558         9       180.000       4.18400    2     ; C-C-C-N, prebuilt X-c-ca-X
 1545    1543    1557    1602         9       180.000       4.18400    2     ; C-C-C-O, prebuilt X-c-ca-X
 1545    1546    1544    1599         9       180.000      15.16700    2     ; C-C-C-H, prebuilt X-ca-ca-X
 1545    1559    1558    1557         9       180.000      10.46000    2     ; C-C-N-C, prebuilt X-c-n-X
 1545    1559    1558    1674         9       180.000      10.46000    2     ; C-C-N-C, prebuilt X-c-n-X
 1546    1544    1541    1547         9       180.000      15.16700    2     ; C-C-C-C, prebuilt X-ca-ca-X
 1546    1545    1543    1557         9       180.000      15.16700    2     ; C-C-C-C, prebuilt X-ca-ca-X
 1546    1545    1559    1558         9       180.000       4.18400    2     ; C-C-C-N, prebuilt X-c-ca-X
 1546    1545    1559    1560         9       180.000       4.18400    2     ; C-C-C-O, prebuilt X-c-ca-X
 1547    1538    1537    1596         9       180.000      15.16700    2     ; C-C-C-H, prebuilt X-ca-ca-X
 1547    1538    1539    1597         9       180.000      15.16700    2     ; C-C-C-H, prebuilt X-ca-ca-X
 1547    1541    1542    1600         9       180.000      15.16700    2     ; C-C-C-H, prebuilt X-ca-ca-X
 1547    1541    1544    1599         9       180.000      15.16700    2     ; C-C-C-H, prebuilt X-ca-ca-X
 1548    1547    1552    1553         9         0.000       0.65084    3     ; C-C-C-F, prebuilt X-c3-c3-X
 1548    1547    1552    1554         9         0.000       0.65084    3     ; C-C-C-F, prebuilt X-c3-c3-X
 1548    1547    1552    1555         9         0.000       0.65084    3     ; C-C-C-F, prebuilt X-c3-c3-X
 1549    1548    1547    1552         9         0.000       0.65084    3     ; F-C-C-C, prebuilt X-c3-c3-X
 1550    1548    1547    1552         9         0.000       0.65084    3     ; F-C-C-C, prebuilt X-c3-c3-X
 1551    1548    1547    1552         9         0.000       0.65084    3     ; F-C-C-C, prebuilt X-c3-c3-X
 1557    1543    1542    1600         9       180.000      15.16700    2     ; C-C-C-H, prebuilt X-ca-ca-X
 1557    1543    1545    1559         9       180.000      15.16700    2     ; C-C-C-C, prebuilt X-ca-ca-X
 1557    1558    1559    1560         9       180.000      10.46000    2     ; C-N-C-O, prebuilt X-c-n-X
 1557    1558    1674    1673         9       180.000       1.88280    2     ; C-N-C-C, prebuilt X-ca-n-X
 1557    1558    1674    1675         9       180.000       1.88280    2     ; C-N-C-C, prebuilt X-ca-n-X
 1558    1674    1673    1672         9       180.000      15.16700    2     ; N-C-C-C, prebuilt X-ca-ca-X
 1558    1674    1673    1701         9       180.000      15.16700    2     ; N-C-C-H, prebuilt X-ca-ca-X
 1558    1674    1675    1676         9       180.000      15.16700    2     ; N-C-C-C, prebuilt X-ca-ca-X
 1558    1674    1675    1703         9       180.000      15.16700    2     ; N-C-C-H, prebuilt X-ca-ca-X
 1559    1545    1546    1601         9       180.000      15.16700    2     ; C-C-C-H, prebuilt X-ca-ca-X
 1559    1558    1557    1602         9       180.000      10.46000    2     ; C-N-C-O, prebuilt X-c-n-X
 1559    1558    1674    1673         9       180.000       1.88280    2     ; C-N-C-C, prebuilt X-ca-n-X
 1559    1558    1674    1675         9       180.000       1.88280    2     ; C-N-C-C, prebuilt X-ca-n-X
 1560    1559    1558    1674         9       180.000      10.46000    2     ; O-C-N-C, prebuilt X-c-n-X
 1561    1524    1522    1587         9       180.000       2.61500    2     ; C-C-N-C, prebuilt X-c2-na-X
 1561    1524    1522    1613         9       180.000       2.61500    2     ; C-C-N-C, prebuilt X-c2-na-X
 1561    1524    1523    1586         9       180.000       2.61500    2     ; C-C-N-C, prebuilt X-c2-na-X
 1561    1562    1564    1566         9       180.000      15.16700    2     ; C-C-C-C, prebuilt X-ca-ca-X
 1561    1562    1564    1604         9       180.000      15.16700    2     ; C-C-C-H, prebuilt X-ca-ca-X
 1561    1563    1565    1566         9       180.000      15.16700    2     ; C-C-C-C, prebuilt X-ca-ca-X
 1561    1563    1565    1611         9       180.000      15.16700    2     ; C-C-C-H, prebuilt X-ca-ca-X
 1562    1561    1563    1565         9       180.000      15.16700    2     ; C-C-C-C, prebuilt X-ca-ca-X
 1562    1561    1563    1605         9       180.000      15.16700    2     ; C-C-C-H, prebuilt X-ca-ca-X
 1562    1564    1566    1565         9       180.000      15.16700    2     ; C-C-C-C, prebuilt X-ca-ca-X
 1562    1564    1566    1567         9       180.000      15.16700    2     ; C-C-C-C, prebuilt X-ca-ca-X
 1563    1561    1562    1564         9       180.000      15.16700    2     ; C-C-C-C, prebuilt X-ca-ca-X
 1563    1561    1562    1603         9       180.000      15.16700    2     ; C-C-C-H, prebuilt X-ca-ca-X
 1563    1565    1566    1564         9       180.000      15.16700    2     ; C-C-C-C, prebuilt X-ca-ca-X
 1563    1565    1566    1567         9       180.000      15.16700    2     ; C-C-C-C, prebuilt X-ca-ca-X
 1564    1566    1565    1611         9       180.000      15.16700    2     ; C-C-C-H, prebuilt X-ca-ca-X
 1564    1566    1567    1568         9       180.000       2.92880    2     ; C-C-C-N, prebuilt X-c2-ca-X
 1564    1566    1567    1569         9       180.000       2.92880    2     ; C-C-C-N, prebuilt X-c2-ca-X
 1565    1566    1564    1604         9       180.000      15.16700    2     ; C-C-C-H, prebuilt X-ca-ca-X
 1565    1566    1567    1568         9       180.000       2.92880    2     ; C-C-C-N, prebuilt X-c2-ca-X
 1565    1566    1567    1569         9       180.000       2.92880    2     ; C-C-C-N, prebuilt X-c2-ca-X
 1566    1564    1562    1603         9       180.000      15.16700    2     ; C-C-C-H, prebuilt X-ca-ca-X
 1566    1565    1563    1605         9       180.000      15.16700    2     ; C-C-C-H, prebuilt X-ca-ca-X
 1566    1567    1568    1570         9       180.000       2.61500    2     ; C-C-N-C, prebuilt X-c2-na-X
 1566    1567    1568    1576         9       180.000       2.61500    2     ; C-C-N-C, prebuilt X-c2-na-X
 1566    1567    1569    1571         9       180.000       2.61500    2     ; C-C-N-C, prebuilt X-c2-na-X
 1566    1567    1569    1572         9       180.000       2.61500    2     ; C-C-N-C, prebuilt X-c2-na-X
 1567    1566    1564    1604         9       180.000      15.16700    2     ; C-C-C-H, prebuilt X-ca-ca-X
 1567    1566    1565    1611         9       180.000      15.16700    2     ; C-C-C-H, prebuilt X-ca-ca-X
 1567    1568    1570    1571         9       180.000       2.61500    2     ; C-N-C-C, prebuilt X-c2-na-X
 1567    1568    1570    1610         9       180.000       2.61500    2     ; C-N-C-H, prebuilt X-c2-na-X
 1567    1568    1576    1577         9       180.000       1.25520    2     ; C-N-C-C, prebuilt X-ca-na-X
 1567    1568    1576    1581         9       180.000       1.25520    2     ; C-N-C-C, prebuilt X-ca-na-X
 1567    1569    1571    1570         9       180.000       2.61500    2     ; C-N-C-C, prebuilt X-c2-na-X
 1567    1569    1571    1582         9       180.000       2.61500    2     ; C-N-C-C, prebuilt X-c2-na-X
 1567    1569    1572    1573         9         0.000       0.00000    2     ; C-N-C-H, prebuilt X-c3-na-X
 1567    1569    1572    1574         9         0.000       0.00000    2     ; C-N-C-H, prebuilt X-c3-na-X
 1567    1569    1572    1575         9         0.000       0.00000    2     ; C-N-C-H, prebuilt X-c3-na-X
 1568    1567    1569    1571         9       180.000       2.61500    2     ; N-C-N-C, prebuilt X-c2-na-X
 1568    1567    1569    1572         9       180.000       2.61500    2     ; N-C-N-C, prebuilt X-c2-na-X
 1568    1570    1571    1569         9       180.000      27.82360    2     ; N-C-C-N, prebuilt X-c2-c2-X
 1568    1570    1571    1582         9       180.000      27.82360    2     ; N-C-C-C, prebuilt X-c2-c2-X
 1568    1576    1577    1578         9       180.000      15.16700    2     ; N-C-C-C, prebuilt X-ca-ca-X
 1568    1576    1577    1607         9       180.000      15.16700    2     ; N-C-C-H, prebuilt X-ca-ca-X
 1568    1576    1581    1580         9       180.000      15.16700    2     ; N-C-C-C, prebuilt X-ca-ca-X
 1568    1576    1581    1609         9       180.000      15.16700    2     ; N-C-C-H, prebuilt X-ca-ca-X
 1569    1567    1568    1570         9       180.000       2.61500    2     ; N-C-N-C, prebuilt X-c2-na-X
 1569    1567    1568    1576         9       180.000       2.61500    2     ; N-C-N-C, prebuilt X-c2-na-X
 1569    1571    1570    1610         9       180.000      27.82360    2     ; N-C-C-H, prebuilt X-c2-c2-X
 1569    1571    1582    1583         9         0.000       0.00000    2     ; N-C-C-F, prebuilt X-c2-c3-X
 1569    1571    1582    1584         9         0.000       0.00000    2     ; N-C-C-F, prebuilt X-c2-c3-X
 1569    1571    1582    1585         9         0.000       0.00000    2     ; N-C-C-F, prebuilt X-c2-c3-X
 1570    1568    1576    1577         9       180.000       1.25520    2     ; C-N-C-C, prebuilt X-ca-na-X
 1570    1568    1576    1581         9       180.000       1.25520    2     ; C-N-C-C, prebuilt X-ca-na-X
 1570    1571    1569    1572         9       180.000       2.61500    2     ; C-C-N-C, prebuilt X-c2-na-X
 1570    1571    1582    1583         9         0.000       0.00000    2     ; C-C-C-F, prebuilt X-c2-c3-X
 1570    1571    1582    1584         9         0.000       0.00000    2     ; C-C-C-F, prebuilt X-c2-c3-X
 1570    1571    1582    1585         9         0.000       0.00000    2     ; C-C-C-F, prebuilt X-c2-c3-X
 1571    1569    1572    1573         9         0.000       0.00000    2     ; C-N-C-H, prebuilt X-c3-na-X
 1571    1569    1572    1574         9         0.000       0.00000    2     ; C-N-C-H, prebuilt X-c3-na-X
 1571    1569    1572    1575         9         0.000       0.00000    2     ; C-N-C-H, prebuilt X-c3-na-X
 1571    1570    1568    1576         9       180.000       2.61500    2     ; C-C-N-C, prebuilt X-c2-na-X
 1572    1569    1571    1582         9       180.000       2.61500    2     ; C-N-C-C, prebuilt X-c2-na-X
 1576    1568    1570    1610         9       180.000       2.61500    2     ; C-N-C-H, prebuilt X-c2-na-X
 1576    1577    1578    1579         9       180.000      15.16700    2     ; C-C-C-C, prebuilt X-ca-ca-X
 1576    1577    1578    1606         9       180.000      15.16700    2     ; C-C-C-H, prebuilt X-ca-ca-X
 1576    1581    1580    1579         9       180.000      15.16700    2     ; C-C-C-C, prebuilt X-ca-ca-X
 1576    1581    1580    1608         9       180.000      15.16700    2     ; C-C-C-H, prebuilt X-ca-ca-X
 1577    1576    1581    1580         9       180.000      15.16700    2     ; C-C-C-C, prebuilt X-ca-ca-X
 1577    1576    1581    1609         9       180.000      15.16700    2     ; C-C-C-H, prebuilt X-ca-ca-X
 1577    1578    1579    1580         9       180.000      15.16700    2     ; C-C-C-C, prebuilt X-ca-ca-X
 1578    1577    1576    1581         9       180.000      15.16700    2     ; C-C-C-C, prebuilt X-ca-ca-X
 1578    1579    1580    1581         9       180.000      15.16700    2     ; C-C-C-C, prebuilt X-ca-ca-X
 1578    1579    1580    1608         9       180.000      15.16700    2     ; C-C-C-H, prebuilt X-ca-ca-X
 1579    1578    1577    1607         9       180.000      15.16700    2     ; C-C-C-H, prebuilt X-ca-ca-X
 1579    1580    1581    1609         9       180.000      15.16700    2     ; C-C-C-H, prebuilt X-ca-ca-X
 1580    1579    1578    1606         9       180.000      15.16700    2     ; C-C-C-H, prebuilt X-ca-ca-X
 1581    1576    1577    1607         9       180.000      15.16700    2     ; C-C-C-H, prebuilt X-ca-ca-X
 1582    1571    1570    1610         9       180.000      27.82360    2     ; C-C-C-H, prebuilt X-c2-c2-X
 1586    1587    1522    1613         9       180.000       2.61500    2     ; C-C-N-C, prebuilt X-c2-na-X
 1586    1587    1588    1589         9         0.000       0.00000    2     ; C-C-C-F, prebuilt X-c2-c3-X
 1586    1587    1588    1590         9         0.000       0.00000    2     ; C-C-C-F, prebuilt X-c2-c3-X
 1586    1587    1588    1612         9         0.000       0.00000    2     ; C-C-C-F, prebuilt X-c2-c3-X
 1587    1522    1613    1614         9         0.000       0.00000    2     ; C-N-C-H, prebuilt X-c3-na-X
 1587    1522    1613    1615         9         0.000       0.00000    2     ; C-N-C-H, prebuilt X-c3-na-X
 1587    1522    1613    1616         9         0.000       0.00000    2     ; C-N-C-H, prebuilt X-c3-na-X
 1588    1587    1522    1613         9       180.000       2.61500    2     ; C-C-N-C, prebuilt X-c2-na-X
 1588    1587    1586    1591         9       180.000      27.82360    2     ; C-C-C-H, prebuilt X-c2-c2-X
 1592    1526    1527    1593         9       180.000      15.16700    2     ; H-C-C-H, prebuilt X-ca-ca-X
 1594    1530    1529    1595         9       180.000      15.16700    2     ; H-C-C-H, prebuilt X-ca-ca-X
 1597    1539    1540    1598         9       180.000      15.16700    2     ; H-C-C-H, prebuilt X-ca-ca-X
 1599    1544    1546    1601         9       180.000      15.16700    2     ; H-C-C-H, prebuilt X-ca-ca-X
 1602    1557    1558    1674         9       180.000      10.46000    2     ; O-C-N-C, prebuilt X-c-n-X
 1603    1562    1564    1604         9       180.000      15.16700    2     ; H-C-C-H, prebuilt X-ca-ca-X
 1605    1563    1565    1611         9       180.000      15.16700    2     ; H-C-C-H, prebuilt X-ca-ca-X
 1606    1578    1577    1607         9       180.000      15.16700    2     ; H-C-C-H, prebuilt X-ca-ca-X
 1608    1580    1581    1609         9       180.000      15.16700    2     ; H-C-C-H, prebuilt X-ca-ca-X
 1617    1619    1618    1620         9       180.000       2.61500    2     ; N-C-N-C, prebuilt X-c2-na-X
 1617    1619    1618    1681         9       180.000       2.61500    2     ; N-C-N-C, prebuilt X-c2-na-X
 1617    1619    1656    1657         9       180.000       2.92880    2     ; N-C-C-C, prebuilt X-c2-ca-X
 1617    1619    1656    1658         9       180.000       2.92880    2     ; N-C-C-C, prebuilt X-c2-ca-X
 1617    1682    1681    1618         9       180.000      27.82360    2     ; N-C-C-N, prebuilt X-c2-c2-X
 1617    1682    1681    1686         9       180.000      27.82360    2     ; N-C-C-H, prebuilt X-c2-c2-X
 1617    1682    1683    1684         9         0.000       0.00000    2     ; N-C-C-F, prebuilt X-c2-c3-X
 1617    1682    1683    1685         9         0.000       0.00000    2     ; N-C-C-F, prebuilt X-c2-c3-X
 1617    1682    1683    1707         9         0.000       0.00000    2     ; N-C-C-F, prebuilt X-c2-c3-X
 1618    1619    1617    1682         9       180.000       2.61500    2     ; N-C-N-C, prebuilt X-c2-na-X
 1618    1619    1617    1708         9       180.000       2.61500    2     ; N-C-N-C, prebuilt X-c2-na-X
 1618    1619    1656    1657         9       180.000       2.92880    2     ; N-C-C-C, prebuilt X-c2-ca-X
 1618    1619    1656    1658         9       180.000       2.92880    2     ; N-C-C-C, prebuilt X-c2-ca-X
 1618    1620    1621    1622         9       180.000      15.16700    2     ; N-C-C-C, prebuilt X-ca-ca-X
 1618    1620    1621    1687         9       180.000      15.16700    2     ; N-C-C-H, prebuilt X-ca-ca-X
 1618    1620    1625    1624         9       180.000      15.16700    2     ; N-C-C-C, prebuilt X-ca-ca-X
 1618    1620    1625    1689         9       180.000      15.16700    2     ; N-C-C-H, prebuilt X-ca-ca-X
 1618    1681    1682    1683         9       180.000      27.82360    2     ; N-C-C-C, prebuilt X-c2-c2-X
 1619    1617    1682    1681         9       180.000       2.61500    2     ; C-N-C-C, prebuilt X-c2-na-X
 1619    1617    1682    1683         9       180.000       2.61500    2     ; C-N-C-C, prebuilt X-c2-na-X
 1619    1617    1708    1709         9         0.000       0.00000    2     ; C-N-C-H, prebuilt X-c3-na-X
 1619    1617    1708    1710         9         0.000       0.00000    2     ; C-N-C-H, prebuilt X-c3-na-X
 1619    1617    1708    1711         9         0.000       0.00000    2     ; C-N-C-H, prebuilt X-c3-na-X
 1619    1618    1620    1621         9       180.000       1.25520    2     ; C-N-C-C, prebuilt X-ca-na-X
 1619    1618    1620    1625         9       180.000       1.25520    2     ; C-N-C-C, prebuilt X-ca-na-X
 1619    1618    1681    1682         9       180.000       2.61500    2     ; C-N-C-C, prebuilt X-c2-na-X
 1619    1618    1681    1686         9       180.000       2.61500    2     ; C-N-C-H, prebuilt X-c2-na-X
 1619    1656    1657    1659         9       180.000      15.16700    2     ; C-C-C-C, prebuilt X-ca-ca-X
 1619    1656    1657    1698         9       180.000      15.16700    2     ; C-C-C-H, prebuilt X-ca-ca-X
 1619    1656    1658    1660         9       180.000      15.16700    2     ; C-C-C-C, prebuilt X-ca-ca-X
 1619    1656    1658    1700         9       180.000      15.16700    2     ; C-C-C-H, prebuilt X-ca-ca-X
 1620    1618    1619    1656         9       180.000       2.61500    2     ; C-N-C-C, prebuilt X-c2-na-X
 1620    1618    1681    1682         9       180.000       2.61500    2     ; C-N-C-C, prebuilt X-c2-na-X
 1620    1618    1681    1686         9       180.000       2.61500    2     ; C-N-C-H, prebuilt X-c2-na-X
 1620    1621    1622    1623         9       180.000      15.16700    2     ; C-C-C-C, prebuilt X-ca-ca-X
 1620    1621    1622    1688         9       180.000      15.16700    2     ; C-C-C-H, prebuilt X-ca-ca-X
 1620    1625    1624    1623         9       180.000      15.16700    2     ; C-C-C-C, prebuilt X-ca-ca-X
 1620    1625    1624    1690         9       180.000      15.16700    2     ; C-C-C-H, prebuilt X-ca-ca-X
 1621    1620    1618    1681         9       180.000       1.25520    2     ; C-C-N-C, prebuilt X-ca-na-X
 1621    1620    1625    1624         9       180.000      15.16700    2     ; C-C-C-C, prebuilt X-ca-ca-X
 1621    1620    1625    1689         9       180.000      15.16700    2     ; C-C-C-H, prebuilt X-ca-ca-X
 1621    1622    1623    1624         9       180.000      15.16700    2     ; C-C-C-C, prebuilt X-ca-ca-X
 1621    1622    1623    1626         9       180.000      15.16700    2     ; C-C-C-N, prebuilt X-ca-ca-X
 1622    1621    1620    1625         9       180.000      15.16700    2     ; C-C-C-C, prebuilt X-ca-ca-X
 1622    1623    1624    1625         9       180.000      15.16700    2     ; C-C-C-C, prebuilt X-ca-ca-X
 1622    1623    1624    1690         9       180.000      15.16700    2     ; C-C-C-H, prebuilt X-ca-ca-X
 1622    1623    1626    1627         9       180.000       1.88280    2     ; C-C-N-C, prebuilt X-ca-n-X
 1622    1623    1626    1630         9       180.000       1.88280    2     ; C-C-N-C, prebuilt X-ca-n-X
 1623    1622    1621    1687         9       180.000      15.16700    2     ; C-C-C-H, prebuilt X-ca-ca-X
 1623    1624    1625    1689         9       180.000      15.16700    2     ; C-C-C-H, prebuilt X-ca-ca-X
 1623    1626    1627    1628         9       180.000      10.46000    2     ; C-N-C-C, prebuilt X-c-n-X
 1623    1626    1627    1651         9       180.000      10.46000    2     ; C-N-C-O, prebuilt X-c-n-X
 1623    1626    1630    1629         9       180.000      10.46000    2     ; C-N-C-C, prebuilt X-c-n-X
 1623    1626    1630    1631         9       180.000      10.46000    2     ; C-N-C-O, prebuilt X-c-n-X
 1624    1623    1622    1688         9       180.000      15.16700    2     ; C-C-C-H, prebuilt X-ca-ca-X
 1624    1623    1626    1627         9       180.000       1.88280    2     ; C-C-N-C, prebuilt X-ca-n-X
 1624    1623    1626    1630         9       180.000       1.88280    2     ; C-C-N-C, prebuilt X-ca-n-X
 1625    1620    1618    1681         9       180.000       1.25520    2     ; C-C-N-C, prebuilt X-ca-na-X
 1625    1620    1621    1687         9       180.000      15.16700    2     ; C-C-C-H, prebuilt X-ca-ca-X
 1625    1624    1623    1626         9       180.000      15.16700    2     ; C-C-C-N, prebuilt X-ca-ca-X
 1626    1623    1622    1688         9       180.000      15.16700    2     ; N-C-C-H, prebuilt X-ca-ca-X
 1626    1623    1624    1690         9       180.000      15.16700    2     ; N-C-C-H, prebuilt X-ca-ca-X
 1626    1627    1628    1629         9       180.000       4.18400    2     ; N-C-C-C, prebuilt X-c-ca-X
 1626    1627    1628    1632         9       180.000       4.18400    2     ; N-C-C-C, prebuilt X-c-ca-X
 1626    1630    1629    1628         9       180.000       4.18400    2     ; N-C-C-C, prebuilt X-c-ca-X
 1626    1630    1629    1635         9       180.000       4.18400    2     ; N-C-C-C, prebuilt X-c-ca-X
 1627    1626    1630    1629         9       180.000      10.46000    2     ; C-N-C-C, prebuilt X-c-n-X
 1627    1626    1630    1631         9       180.000      10.46000    2     ; C-N-C-O, prebuilt X-c-n-X
 1627    1628    1629    1630         9       180.000      15.16700    2     ; C-C-C-C, prebuilt X-ca-ca-X
 1627    1628    1629    1635         9       180.000      15.16700    2     ; C-C-C-C, prebuilt X-ca-ca-X
 1627    1628    1632    1633         9       180.000      15.16700    2     ; C-C-C-C, prebuilt X-ca-ca-X
 1627    1628    1632    1691         9       180.000      15.16700    2     ; C-C-C-H, prebuilt X-ca-ca-X
 1628    1627    1626    1630         9       180.000      10.46000    2     ; C-C-N-C, prebuilt X-c-n-X
 1628    1629    1630    1631         9       180.000       4.18400    2     ; C-C-C-O, prebuilt X-c-ca-X
 1628    1629    1635    1634         9       180.000      15.16700    2     ; C-C-C-C, prebuilt X-ca-ca-X
 1628    1629    1635    1693         9       180.000      15.16700    2     ; C-C-C-H, prebuilt X-ca-ca-X
 1628    1632    1633    1634         9       180.000      15.16700    2     ; C-C-C-C, prebuilt X-ca-ca-X
 1628    1632    1633    1642         9       180.000      15.16700    2     ; C-C-C-C, prebuilt X-ca-ca-X
 1629    1628    1627    1651         9       180.000       4.18400    2     ; C-C-C-O, prebuilt X-c-ca-X
 1629    1628    1632    1633         9       180.000      15.16700    2     ; C-C-C-C, prebuilt X-ca-ca-X
 1629    1628    1632    1691         9       180.000      15.16700    2     ; C-C-C-H, prebuilt X-ca-ca-X
 1629    1635    1634    1633         9       180.000      15.16700    2     ; C-C-C-C, prebuilt X-ca-ca-X
 1629    1635    1634    1692         9       180.000      15.16700    2     ; C-C-C-H, prebuilt X-ca-ca-X
 1630    1626    1627    1651         9       180.000      10.46000    2     ; C-N-C-O, prebuilt X-c-n-X
 1630    1629    1628    1632         9       180.000      15.16700    2     ; C-C-C-C, prebuilt X-ca-ca-X
 1630    1629    1635    1634         9       180.000      15.16700    2     ; C-C-C-C, prebuilt X-ca-ca-X
 1630    1629    1635    1693         9       180.000      15.16700    2     ; C-C-C-H, prebuilt X-ca-ca-X
 1631    1630    1629    1635         9       180.000       4.18400    2     ; O-C-C-C, prebuilt X-c-ca-X
 1632    1628    1627    1651         9       180.000       4.18400    2     ; C-C-C-O, prebuilt X-c-ca-X
 1632    1628    1629    1635         9       180.000      15.16700    2     ; C-C-C-C, prebuilt X-ca-ca-X
 1632    1633    1634    1635         9       180.000      15.16700    2     ; C-C-C-C, prebuilt X-ca-ca-X
 1632    1633    1634    1692         9       180.000      15.16700    2     ; C-C-C-H, prebuilt X-ca-ca-X
 1632    1633    1642    1636         9         0.000       0.00000    2     ; C-C-C-C, prebuilt X-c3-ca-X
 1632    1633    1642    1643         9         0.000       0.00000    2     ; C-C-C-C, prebuilt X-c3-ca-X
 1632    1633    1642    1647         9         0.000       0.00000    2     ; C-C-C-C, prebuilt X-c3-ca-X
 1633    1634    1635    1693         9       180.000      15.16700    2     ; C-C-C-H, prebuilt X-ca-ca-X
 1633    1642    1636    1637         9         0.000       0.00000    2     ; C-C-C-C, prebuilt X-c3-ca-X
 1633    1642    1636    1639         9         0.000       0.00000    2     ; C-C-C-C, prebuilt X-c3-ca-X
 1633    1642    1643    1644         9         0.000       0.65084    3     ; C-C-C-F, prebuilt X-c3-c3-X
 1633    1642    1643    1645         9         0.000       0.65084    3     ; C-C-C-F, prebuilt X-c3-c3-X
 1633    1642    1643    1646         9         0.000       0.65084    3     ; C-C-C-F, prebuilt X-c3-c3-X
 1633    1642    1647    1648         9         0.000       0.65084    3     ; C-C-C-F, prebuilt X-c3-c3-X
 1633    1642    1647    1649         9         0.000       0.65084    3     ; C-C-C-F, prebuilt X-c3-c3-X
 1633    1642    1647    1650         9         0.000       0.65084    3     ; C-C-C-F, prebuilt X-c3-c3-X
 1634    1633    1632    1691         9       180.000      15.16700    2     ; C-C-C-H, prebuilt X-ca-ca-X
 1634    1633    1642    1636         9         0.000       0.00000    2     ; C-C-C-C, prebuilt X-c3-ca-X
 1634    1633    1642    1643         9         0.000       0.00000    2     ; C-C-C-C, prebuilt X-c3-ca-X
 1634    1633    1642    1647         9         0.000       0.00000    2     ; C-C-C-C, prebuilt X-c3-ca-X
 1635    1634    1633    1642         9       180.000      15.16700    2     ; C-C-C-C, prebuilt X-ca-ca-X
 1636    1637    1638    1640         9       180.000      15.16700    2     ; C-C-C-C, prebuilt X-ca-ca-X
 1636    1637    1638    1652         9       180.000      15.16700    2     ; C-C-C-C, prebuilt X-ca-ca-X
 1636    1639    1641    1640         9       180.000      15.16700    2     ; C-C-C-C, prebuilt X-ca-ca-X
 1636    1639    1641    1696         9       180.000      15.16700    2     ; C-C-C-H, prebuilt X-ca-ca-X
 1636    1642    1643    1644         9         0.000       0.65084    3     ; C-C-C-F, prebuilt X-c3-c3-X
 1636    1642    1643    1645         9         0.000       0.65084    3     ; C-C-C-F, prebuilt X-c3-c3-X
 1636    1642    1643    1646         9         0.000       0.65084    3     ; C-C-C-F, prebuilt X-c3-c3-X
 1636    1642    1647    1648         9         0.000       0.65084    3     ; C-C-C-F, prebuilt X-c3-c3-X
 1636    1642    1647    1649         9         0.000       0.65084    3     ; C-C-C-F, prebuilt X-c3-c3-X
 1636    1642    1647    1650         9         0.000       0.65084    3     ; C-C-C-F, prebuilt X-c3-c3-X
 1637    1636    1639    1641         9       180.000      15.16700    2     ; C-C-C-C, prebuilt X-ca-ca-X
 1637    1636    1639    1694         9       180.000      15.16700    2     ; C-C-C-H, prebuilt X-ca-ca-X
 1637    1636    1642    1643         9         0.000       0.00000    2     ; C-C-C-C, prebuilt X-c3-ca-X
 1637    1636    1642    1647         9         0.000       0.00000    2     ; C-C-C-C, prebuilt X-c3-ca-X
 1637    1638    1640    1641         9       180.000      15.16700    2     ; C-C-C-C, prebuilt X-ca-ca-X
 1637    1638    1640    1654         9       180.000      15.16700    2     ; C-C-C-C, prebuilt X-ca-ca-X
 1637    1638    1652    1653         9       180.000       4.18400    2     ; C-C-C-N, prebuilt X-c-ca-X
 1637    1638    1652    1697         9       180.000       4.18400    2     ; C-C-C-O, prebuilt X-c-ca-X
 1638    1637    1636    1639         9       180.000      15.16700    2     ; C-C-C-C, prebuilt X-ca-ca-X
 1638    1637    1636    1642         9       180.000      15.16700    2     ; C-C-C-C, prebuilt X-ca-ca-X
 1638    1640    1641    1639         9       180.000      15.16700    2     ; C-C-C-C, prebuilt X-ca-ca-X
 1638    1640    1641    1696         9       180.000      15.16700    2     ; C-C-C-H, prebuilt X-ca-ca-X
 1638    1640    1654    1653         9       180.000       4.18400    2     ; C-C-C-N, prebuilt X-c-ca-X
 1638    1640    1654    1655         9       180.000       4.18400    2     ; C-C-C-O, prebuilt X-c-ca-X
 1638    1652    1653    1654         9       180.000      10.46000    2     ; C-C-N-C, prebuilt X-c-n-X
 1638    1652    1653    1769         9       180.000      10.46000    2     ; C-C-N-C, prebuilt X-c-n-X
 1639    1636    1637    1695         9       180.000      15.16700    2     ; C-C-C-H, prebuilt X-ca-ca-X
 1639    1636    1642    1643         9         0.000       0.00000    2     ; C-C-C-C, prebuilt X-c3-ca-X
 1639    1636    1642    1647         9         0.000       0.00000    2     ; C-C-C-C, prebuilt X-c3-ca-X
 1639    1641    1640    1654         9       180.000      15.16700    2     ; C-C-C-C, prebuilt X-ca-ca-X
 1640    1638    1637    1695         9       180.000      15.16700    2     ; C-C-C-H, prebuilt X-ca-ca-X
 1640    1638    1652    1653         9       180.000       4.18400    2     ; C-C-C-N, prebuilt X-c-ca-X
 1640    1638    1652    1697         9       180.000       4.18400    2     ; C-C-C-O, prebuilt X-c-ca-X
 1640    1641    1639    1694         9       180.000      15.16700    2     ; C-C-C-H, prebuilt X-ca-ca-X
 1640    1654    1653    1652         9       180.000      10.46000    2     ; C-C-N-C, prebuilt X-c-n-X
 1640    1654    1653    1769         9       180.000      10.46000    2     ; C-C-N-C, prebuilt X-c-n-X
 1641    1639    1636    1642         9       180.000      15.16700    2     ; C-C-C-C, prebuilt X-ca-ca-X
 1641    1640    1638    1652         9       180.000      15.16700    2     ; C-C-C-C, prebuilt X-ca-ca-X
 1641    1640    1654    1653         9       180.000       4.18400    2     ; C-C-C-N, prebuilt X-c-ca-X
 1641    1640    1654    1655         9       180.000       4.18400    2     ; C-C-C-O, prebuilt X-c-ca-X
 1642    1633    1632    1691         9       180.000      15.16700    2     ; C-C-C-H, prebuilt X-ca-ca-X
 1642    1633    1634    1692         9       180.000      15.16700    2     ; C-C-C-H, prebuilt X-ca-ca-X
 1642    1636    1637    1695         9       180.000      15.16700    2     ; C-C-C-H, prebuilt X-ca-ca-X
 1642    1636    1639    1694         9       180.000      15.16700    2     ; C-C-C-H, prebuilt X-ca-ca-X
 1643    1642    1647    1648         9         0.000       0.65084    3     ; C-C-C-F, prebuilt X-c3-c3-X
 1643    1642    1647    1649         9         0.000       0.65084    3     ; C-C-C-F, prebuilt X-c3-c3-X
 1643    1642    1647    1650         9         0.000       0.65084    3     ; C-C-C-F, prebuilt X-c3-c3-X
 1644    1643    1642    1647         9         0.000       0.65084    3     ; F-C-C-C, prebuilt X-c3-c3-X
 1645    1643    1642    1647         9         0.000       0.65084    3     ; F-C-C-C, prebuilt X-c3-c3-X
 1646    1643    1642    1647         9         0.000       0.65084    3     ; F-C-C-C, prebuilt X-c3-c3-X
 1652    1638    1637    1695         9       180.000      15.16700    2     ; C-C-C-H, prebuilt X-ca-ca-X
 1652    1638    1640    1654         9       180.000      15.16700    2     ; C-C-C-C, prebuilt X-ca-ca-X
 1652    1653    1654    1655         9       180.000      10.46000    2     ; C-N-C-O, prebuilt X-c-n-X
 1652    1653    1769    1768         9       180.000       1.88280    2     ; C-N-C-C, prebuilt X-ca-n-X
 1652    1653    1769    1770         9       180.000       1.88280    2     ; C-N-C-C, prebuilt X-ca-n-X
 1653    1769    1768    1767         9       180.000      15.16700    2     ; N-C-C-C, prebuilt X-ca-ca-X
 1653    1769    1768    1796         9       180.000      15.16700    2     ; N-C-C-H, prebuilt X-ca-ca-X
 1653    1769    1770    1771         9       180.000      15.16700    2     ; N-C-C-C, prebuilt X-ca-ca-X
 1653    1769    1770    1798         9       180.000      15.16700    2     ; N-C-C-H, prebuilt X-ca-ca-X
 1654    1640    1641    1696         9       180.000      15.16700    2     ; C-C-C-H, prebuilt X-ca-ca-X
 1654    1653    1652    1697         9       180.000      10.46000    2     ; C-N-C-O, prebuilt X-c-n-X
 1654    1653    1769    1768         9       180.000       1.88280    2     ; C-N-C-C, prebuilt X-ca-n-X
 1654    1653    1769    1770         9       180.000       1.88280    2     ; C-N-C-C, prebuilt X-ca-n-X
 1655    1654    1653    1769         9       180.000      10.46000    2     ; O-C-N-C, prebuilt X-c-n-X
 1656    1619    1617    1682         9       180.000       2.61500    2     ; C-C-N-C, prebuilt X-c2-na-X
 1656    1619    1617    1708         9       180.000       2.61500    2     ; C-C-N-C, prebuilt X-c2-na-X
 1656    1619    1618    1681         9       180.000       2.61500    2     ; C-C-N-C, prebuilt X-c2-na-X
 1656    1657    1659    1661         9       180.000      15.16700    2     ; C-C-C-C, prebuilt X-ca-ca-X
 1656    1657    1659    1699         9       180.000      15.16700    2     ; C-C-C-H, prebuilt X-ca-ca-X
 1656    1658    1660    1661         9       180.000      15.16700    2     ; C-C-C-C, prebuilt X-ca-ca-X
 1656    1658    1660    1706         9       180.000      15.16700    2     ; C-C-C-H, prebuilt X-ca-ca-X
 1657    1656    1658    1660         9       180.000      15.16700    2     ; C-C-C-C, prebuilt X-ca-ca-X
 1657    1656    1658    1700         9       180.000      15.16700    2     ; C-C-C-H, prebuilt X-ca-ca-X
 1657    1659    1661    1660         9       180.000      15.16700    2     ; C-C-C-C, prebuilt X-ca-ca-X
 1657    1659    1661    1662         9       180.000      15.16700    2     ; C-C-C-C, prebuilt X-ca-ca-X
 1658    1656    1657    1659         9       180.000      15.16700    2     ; C-C-C-C, prebuilt X-ca-ca-X
 1658    1656    1657    1698         9       180.000      15.16700    2     ; C-C-C-H, prebuilt X-ca-ca-X
 1658    1660    1661    1659         9       180.000      15.16700    2     ; C-C-C-C, prebuilt X-ca-ca-X
 1658    1660    1661    1662         9       180.000      15.16700    2     ; C-C-C-C, prebuilt X-ca-ca-X
 1659    1661    1660    1706         9       180.000      15.16700    2     ; C-C-C-H, prebuilt X-ca-ca-X
 1659    1661    1662    1663         9       180.000       2.92880    2     ; C-C-C-N, prebuilt X-c2-ca-X
 1659    1661    1662    1664         9       180.000       2.92880    2     ; C-C-C-N, prebuilt X-c2-ca-X
 1660    1661    1659    1699         9       180.000      15.16700    2     ; C-C-C-H, prebuilt X-ca-ca-X
 1660    1661    1662    1663         9       180.000       2.92880    2     ; C-C-C-N, prebuilt X-c2-ca-X
 1660    1661    1662    1664         9       180.000       2.92880    2     ; C-C-C-N, prebuilt X-c2-ca-X
 1661    1659    1657    1698         9       180.000      15.16700    2     ; C-C-C-H, prebuilt X-ca-ca-X
 1661    1660    1658    1700         9       180.000      15.16700    2     ; C-C-C-H, prebuilt X-ca-ca-X
 1661    1662    1663    1665         9       180.000       2.61500    2     ; C-C-N-C, prebuilt X-c2-na-X
 1661    1662    1663    1671         9       180.000       2.61500    2     ; C-C-N-C, prebuilt X-c2-na-X
 1661    1662    1664    1666         9       180.000       2.61500    2     ; C-C-N-C, prebuilt X-c2-na-X
 1661    1662    1664    1667         9       180.000       2.61500    2     ; C-C-N-C, prebuilt X-c2-na-X
 1662    1661    1659    1699         9       180.000      15.16700    2     ; C-C-C-H, prebuilt X-ca-ca-X
 1662    1661    1660    1706         9       180.000      15.16700    2     ; C-C-C-H, prebuilt X-ca-ca-X
 1662    1663    1665    1666         9       180.000       2.61500    2     ; C-N-C-C, prebuilt X-c2-na-X
 1662    1663    1665    1705         9       180.000       2.61500    2     ; C-N-C-H, prebuilt X-c2-na-X
 1662    1663    1671    1672         9       180.000       1.25520    2     ; C-N-C-C, prebuilt X-ca-na-X
 1662    1663    1671    1676         9       180.000       1.25520    2     ; C-N-C-C, prebuilt X-ca-na-X
 1662    1664    1666    1665         9       180.000       2.61500    2     ; C-N-C-C, prebuilt X-c2-na-X
 1662    1664    1666    1677         9       180.000       2.61500    2     ; C-N-C-C, prebuilt X-c2-na-X
 1662    1664    1667    1668         9         0.000       0.00000    2     ; C-N-C-H, prebuilt X-c3-na-X
 1662    1664    1667    1669         9         0.000       0.00000    2     ; C-N-C-H, prebuilt X-c3-na-X
 1662    1664    1667    1670         9         0.000       0.00000    2     ; C-N-C-H, prebuilt X-c3-na-X
 1663    1662    1664    1666         9       180.000       2.61500    2     ; N-C-N-C, prebuilt X-c2-na-X
 1663    1662    1664    1667         9       180.000       2.61500    2     ; N-C-N-C, prebuilt X-c2-na-X
 1663    1665    1666    1664         9       180.000      27.82360    2     ; N-C-C-N, prebuilt X-c2-c2-X
 1663    1665    1666    1677         9       180.000      27.82360    2     ; N-C-C-C, prebuilt X-c2-c2-X
 1663    1671    1672    1673         9       180.000      15.16700    2     ; N-C-C-C, prebuilt X-ca-ca-X
 1663    1671    1672    1702         9       180.000      15.16700    2     ; N-C-C-H, prebuilt X-ca-ca-X
 1663    1671    1676    1675         9       180.000      15.16700    2     ; N-C-C-C, prebuilt X-ca-ca-X
 1663    1671    1676    1704         9       180.000      15.16700    2     ; N-C-C-H, prebuilt X-ca-ca-X
 1664    1662    1663    1665         9       180.000       2.61500    2     ; N-C-N-C, prebuilt X-c2-na-X
 1664    1662    1663    1671         9       180.000       2.61500    2     ; N-C-N-C, prebuilt X-c2-na-X
 1664    1666    1665    1705         9       180.000      27.82360    2     ; N-C-C-H, prebuilt X-c2-c2-X
 1664    1666    1677    1678         9         0.000       0.00000    2     ; N-C-C-F, prebuilt X-c2-c3-X
 1664    1666    1677    1679         9         0.000       0.00000    2     ; N-C-C-F, prebuilt X-c2-c3-X
 1664    1666    1677    1680         9         0.000       0.00000    2     ; N-C-C-F, prebuilt X-c2-c3-X
 1665    1663    1671    1672         9       180.000       1.25520    2     ; C-N-C-C, prebuilt X-ca-na-X
 1665    1663    1671    1676         9       180.000       1.25520    2     ; C-N-C-C, prebuilt X-ca-na-X
 1665    1666    1664    1667         9       180.000       2.61500    2     ; C-C-N-C, prebuilt X-c2-na-X
 1665    1666    1677    1678         9         0.000       0.00000    2     ; C-C-C-F, prebuilt X-c2-c3-X
 1665    1666    1677    1679         9         0.000       0.00000    2     ; C-C-C-F, prebuilt X-c2-c3-X
 1665    1666    1677    1680         9         0.000       0.00000    2     ; C-C-C-F, prebuilt X-c2-c3-X
 1666    1664    1667    1668         9         0.000       0.00000    2     ; C-N-C-H, prebuilt X-c3-na-X
 1666    1664    1667    1669         9         0.000       0.00000    2     ; C-N-C-H, prebuilt X-c3-na-X
 1666    1664    1667    1670         9         0.000       0.00000    2     ; C-N-C-H, prebuilt X-c3-na-X
 1666    1665    1663    1671         9       180.000       2.61500    2     ; C-C-N-C, prebuilt X-c2-na-X
 1667    1664    1666    1677         9       180.000       2.61500    2     ; C-N-C-C, prebuilt X-c2-na-X
 1671    1663    1665    1705         9       180.000       2.61500    2     ; C-N-C-H, prebuilt X-c2-na-X
 1671    1672    1673    1674         9       180.000      15.16700    2     ; C-C-C-C, prebuilt X-ca-ca-X
 1671    1672    1673    1701         9       180.000      15.16700    2     ; C-C-C-H, prebuilt X-ca-ca-X
 1671    1676    1675    1674         9       180.000      15.16700    2     ; C-C-C-C, prebuilt X-ca-ca-X
 1671    1676    1675    1703         9       180.000      15.16700    2     ; C-C-C-H, prebuilt X-ca-ca-X
 1672    1671    1676    1675         9       180.000      15.16700    2     ; C-C-C-C, prebuilt X-ca-ca-X
 1672    1671    1676    1704         9       180.000      15.16700    2     ; C-C-C-H, prebuilt X-ca-ca-X
 1672    1673    1674    1675         9       180.000      15.16700    2     ; C-C-C-C, prebuilt X-ca-ca-X
 1673    1672    1671    1676         9       180.000      15.16700    2     ; C-C-C-C, prebuilt X-ca-ca-X
 1673    1674    1675    1676         9       180.000      15.16700    2     ; C-C-C-C, prebuilt X-ca-ca-X
 1673    1674    1675    1703         9       180.000      15.16700    2     ; C-C-C-H, prebuilt X-ca-ca-X
 1674    1673    1672    1702         9       180.000      15.16700    2     ; C-C-C-H, prebuilt X-ca-ca-X
 1674    1675    1676    1704         9       180.000      15.16700    2     ; C-C-C-H, prebuilt X-ca-ca-X
 1675    1674    1673    1701         9       180.000      15.16700    2     ; C-C-C-H, prebuilt X-ca-ca-X
 1676    1671    1672    1702         9       180.000      15.16700    2     ; C-C-C-H, prebuilt X-ca-ca-X
 1677    1666    1665    1705         9       180.000      27.82360    2     ; C-C-C-H, prebuilt X-c2-c2-X
 1681    1682    1617    1708         9       180.000       2.61500    2     ; C-C-N-C, prebuilt X-c2-na-X
 1681    1682    1683    1684         9         0.000       0.00000    2     ; C-C-C-F, prebuilt X-c2-c3-X
 1681    1682    1683    1685         9         0.000       0.00000    2     ; C-C-C-F, prebuilt X-c2-c3-X
 1681    1682    1683    1707         9         0.000       0.00000    2     ; C-C-C-F, prebuilt X-c2-c3-X
 1682    1617    1708    1709         9         0.000       0.00000    2     ; C-N-C-H, prebuilt X-c3-na-X
 1682    1617    1708    1710         9         0.000       0.00000    2     ; C-N-C-H, prebuilt X-c3-na-X
 1682    1617    1708    1711         9         0.000       0.00000    2     ; C-N-C-H, prebuilt X-c3-na-X
 1683    1682    1617    1708         9       180.000       2.61500    2     ; C-C-N-C, prebuilt X-c2-na-X
 1683    1682    1681    1686         9       180.000      27.82360    2     ; C-C-C-H, prebuilt X-c2-c2-X
 1687    1621    1622    1688         9       180.000      15.16700    2     ; H-C-C-H, prebuilt X-ca-ca-X
 1689    1625    1624    1690         9       180.000      15.16700    2     ; H-C-C-H, prebuilt X-ca-ca-X
 1692    1634    1635    1693         9       180.000      15.16700    2     ; H-C-C-H, prebuilt X-ca-ca-X
 1694    1639    1641    1696         9       180.000      15.16700    2     ; H-C-C-H, prebuilt X-ca-ca-X
 1697    1652    1653    1769         9       180.000      10.46000    2     ; O-C-N-C, prebuilt X-c-n-X
 1698    1657    1659    1699         9       180.000      15.16700    2     ; H-C-C-H, prebuilt X-ca-ca-X
 1700    1658    1660    1706         9       180.000      15.16700    2     ; H-C-C-H, prebuilt X-ca-ca-X
 1701    1673    1672    1702         9       180.000      15.16700    2     ; H-C-C-H, prebuilt X-ca-ca-X
 1703    1675    1676    1704         9       180.000      15.16700    2     ; H-C-C-H, prebuilt X-ca-ca-X
 1712    1714    1713    1715         9       180.000       2.61500    2     ; N-C-N-C, prebuilt X-c2-na-X
 1712    1714    1713    1776         9       180.000       2.61500    2     ; N-C-N-C, prebuilt X-c2-na-X
 1712    1714    1751    1752         9       180.000       2.92880    2     ; N-C-C-C, prebuilt X-c2-ca-X
 1712    1714    1751    1753         9       180.000       2.92880    2     ; N-C-C-C, prebuilt X-c2-ca-X
 1712    1777    1776    1713         9       180.000      27.82360    2     ; N-C-C-N, prebuilt X-c2-c2-X
 1712    1777    1776    1781         9       180.000      27.82360    2     ; N-C-C-H, prebuilt X-c2-c2-X
 1712    1777    1778    1779         9         0.000       0.00000    2     ; N-C-C-F, prebuilt X-c2-c3-X
 1712    1777    1778    1780         9         0.000       0.00000    2     ; N-C-C-F, prebuilt X-c2-c3-X
 1712    1777    1778    1802         9         0.000       0.00000    2     ; N-C-C-F, prebuilt X-c2-c3-X
 1713    1714    1712    1777         9       180.000       2.61500    2     ; N-C-N-C, prebuilt X-c2-na-X
 1713    1714    1712    1803         9       180.000       2.61500    2     ; N-C-N-C, prebuilt X-c2-na-X
 1713    1714    1751    1752         9       180.000       2.92880    2     ; N-C-C-C, prebuilt X-c2-ca-X
 1713    1714    1751    1753         9       180.000       2.92880    2     ; N-C-C-C, prebuilt X-c2-ca-X
 1713    1715    1716    1717         9       180.000      15.16700    2     ; N-C-C-C, prebuilt X-ca-ca-X
 1713    1715    1716    1782         9       180.000      15.16700    2     ; N-C-C-H, prebuilt X-ca-ca-X
 1713    1715    1720    1719         9       180.000      15.16700    2     ; N-C-C-C, prebuilt X-ca-ca-X
 1713    1715    1720    1784         9       180.000      15.16700    2     ; N-C-C-H, prebuilt X-ca-ca-X
 1713    1776    1777    1778         9       180.000      27.82360    2     ; N-C-C-C, prebuilt X-c2-c2-X
 1714    1712    1777    1776         9       180.000       2.61500    2     ; C-N-C-C, prebuilt X-c2-na-X
 1714    1712    1777    1778         9       180.000       2.61500    2     ; C-N-C-C, prebuilt X-c2-na-X
 1714    1712    1803    1804         9         0.000       0.00000    2     ; C-N-C-H, prebuilt X-c3-na-X
 1714    1712    1803    1805         9         0.000       0.00000    2     ; C-N-C-H, prebuilt X-c3-na-X
 1714    1712    1803    1806         9         0.000       0.00000    2     ; C-N-C-H, prebuilt X-c3-na-X
 1714    1713    1715    1716         9       180.000       1.25520    2     ; C-N-C-C, prebuilt X-ca-na-X
 1714    1713    1715    1720         9       180.000       1.25520    2     ; C-N-C-C, prebuilt X-ca-na-X
 1714    1713    1776    1777         9       180.000       2.61500    2     ; C-N-C-C, prebuilt X-c2-na-X
 1714    1713    1776    1781         9       180.000       2.61500    2     ; C-N-C-H, prebuilt X-c2-na-X
 1714    1751    1752    1754         9       180.000      15.16700    2     ; C-C-C-C, prebuilt X-ca-ca-X
 1714    1751    1752    1793         9       180.000      15.16700    2     ; C-C-C-H, prebuilt X-ca-ca-X
 1714    1751    1753    1755         9       180.000      15.16700    2     ; C-C-C-C, prebuilt X-ca-ca-X
 1714    1751    1753    1795         9       180.000      15.16700    2     ; C-C-C-H, prebuilt X-ca-ca-X
 1715    1713    1714    1751         9       180.000       2.61500    2     ; C-N-C-C, prebuilt X-c2-na-X
 1715    1713    1776    1777         9       180.000       2.61500    2     ; C-N-C-C, prebuilt X-c2-na-X
 1715    1713    1776    1781         9       180.000       2.61500    2     ; C-N-C-H, prebuilt X-c2-na-X
 1715    1716    1717    1718         9       180.000      15.16700    2     ; C-C-C-C, prebuilt X-ca-ca-X
 1715    1716    1717    1783         9       180.000      15.16700    2     ; C-C-C-H, prebuilt X-ca-ca-X
 1715    1720    1719    1718         9       180.000      15.16700    2     ; C-C-C-C, prebuilt X-ca-ca-X
 1715    1720    1719    1785         9       180.000      15.16700    2     ; C-C-C-H, prebuilt X-ca-ca-X
 1716    1715    1713    1776         9       180.000       1.25520    2     ; C-C-N-C, prebuilt X-ca-na-X
 1716    1715    1720    1719         9       180.000      15.16700    2     ; C-C-C-C, prebuilt X-ca-ca-X
 1716    1715    1720    1784         9       180.000      15.16700    2     ; C-C-C-H, prebuilt X-ca-ca-X
 1716    1717    1718    1719         9       180.000      15.16700    2     ; C-C-C-C, prebuilt X-ca-ca-X
 1716    1717    1718    1721         9       180.000      15.16700    2     ; C-C-C-N, prebuilt X-ca-ca-X
 1717    1716    1715    1720         9       180.000      15.16700    2     ; C-C-C-C, prebuilt X-ca-ca-X
 1717    1718    1719    1720         9       180.000      15.16700    2     ; C-C-C-C, prebuilt X-ca-ca-X
 1717    1718    1719    1785         9       180.000      15.16700    2     ; C-C-C-H, prebuilt X-ca-ca-X
 1717    1718    1721    1722         9       180.000       1.88280    2     ; C-C-N-C, prebuilt X-ca-n-X
 1717    1718    1721    1725         9       180.000       1.88280    2     ; C-C-N-C, prebuilt X-ca-n-X
 1718    1717    1716    1782         9       180.000      15.16700    2     ; C-C-C-H, prebuilt X-ca-ca-X
 1718    1719    1720    1784         9       180.000      15.16700    2     ; C-C-C-H, prebuilt X-ca-ca-X
 1718    1721    1722    1723         9       180.000      10.46000    2     ; C-N-C-C, prebuilt X-c-n-X
 1718    1721    1722    1746         9       180.000      10.46000    2     ; C-N-C-O, prebuilt X-c-n-X
 1718    1721    1725    1724         9       180.000      10.46000    2     ; C-N-C-C, prebuilt X-c-n-X
 1718    1721    1725    1726         9       180.000      10.46000    2     ; C-N-C-O, prebuilt X-c-n-X
 1719    1718    1717    1783         9       180.000      15.16700    2     ; C-C-C-H, prebuilt X-ca-ca-X
 1719    1718    1721    1722         9       180.000       1.88280    2     ; C-C-N-C, prebuilt X-ca-n-X
 1719    1718    1721    1725         9       180.000       1.88280    2     ; C-C-N-C, prebuilt X-ca-n-X
 1720    1715    1713    1776         9       180.000       1.25520    2     ; C-C-N-C, prebuilt X-ca-na-X
 1720    1715    1716    1782         9       180.000      15.16700    2     ; C-C-C-H, prebuilt X-ca-ca-X
 1720    1719    1718    1721         9       180.000      15.16700    2     ; C-C-C-N, prebuilt X-ca-ca-X
 1721    1718    1717    1783         9       180.000      15.16700    2     ; N-C-C-H, prebuilt X-ca-ca-X
 1721    1718    1719    1785         9       180.000      15.16700    2     ; N-C-C-H, prebuilt X-ca-ca-X
 1721    1722    1723    1724         9       180.000       4.18400    2     ; N-C-C-C, prebuilt X-c-ca-X
 1721    1722    1723    1727         9       180.000       4.18400    2     ; N-C-C-C, prebuilt X-c-ca-X
 1721    1725    1724    1723         9       180.000       4.18400    2     ; N-C-C-C, prebuilt X-c-ca-X
 1721    1725    1724    1730         9       180.000       4.18400    2     ; N-C-C-C, prebuilt X-c-ca-X
 1722    1721    1725    1724         9       180.000      10.46000    2     ; C-N-C-C, prebuilt X-c-n-X
 1722    1721    1725    1726         9       180.000      10.46000    2     ; C-N-C-O, prebuilt X-c-n-X
 1722    1723    1724    1725         9       180.000      15.16700    2     ; C-C-C-C, prebuilt X-ca-ca-X
 1722    1723    1724    1730         9       180.000      15.16700    2     ; C-C-C-C, prebuilt X-ca-ca-X
 1722    1723    1727    1728         9       180.000      15.16700    2     ; C-C-C-C, prebuilt X-ca-ca-X
 1722    1723    1727    1786         9       180.000      15.16700    2     ; C-C-C-H, prebuilt X-ca-ca-X
 1723    1722    1721    1725         9       180.000      10.46000    2     ; C-C-N-C, prebuilt X-c-n-X
 1723    1724    1725    1726         9       180.000       4.18400    2     ; C-C-C-O, prebuilt X-c-ca-X
 1723    1724    1730    1729         9       180.000      15.16700    2     ; C-C-C-C, prebuilt X-ca-ca-X
 1723    1724    1730    1788         9       180.000      15.16700    2     ; C-C-C-H, prebuilt X-ca-ca-X
 1723    1727    1728    1729         9       180.000      15.16700    2     ; C-C-C-C, prebuilt X-ca-ca-X
 1723    1727    1728    1737         9       180.000      15.16700    2     ; C-C-C-C, prebuilt X-ca-ca-X
 1724    1723    1722    1746         9       180.000       4.18400    2     ; C-C-C-O, prebuilt X-c-ca-X
 1724    1723    1727    1728         9       180.000      15.16700    2     ; C-C-C-C, prebuilt X-ca-ca-X
 1724    1723    1727    1786         9       180.000      15.16700    2     ; C-C-C-H, prebuilt X-ca-ca-X
 1724    1730    1729    1728         9       180.000      15.16700    2     ; C-C-C-C, prebuilt X-ca-ca-X
 1724    1730    1729    1787         9       180.000      15.16700    2     ; C-C-C-H, prebuilt X-ca-ca-X
 1725    1721    1722    1746         9       180.000      10.46000    2     ; C-N-C-O, prebuilt X-c-n-X
 1725    1724    1723    1727         9       180.000      15.16700    2     ; C-C-C-C, prebuilt X-ca-ca-X
 1725    1724    1730    1729         9       180.000      15.16700    2     ; C-C-C-C, prebuilt X-ca-ca-X
 1725    1724    1730    1788         9       180.000      15.16700    2     ; C-C-C-H, prebuilt X-ca-ca-X
 1726    1725    1724    1730         9       180.000       4.18400    2     ; O-C-C-C, prebuilt X-c-ca-X
 1727    1723    1722    1746         9       180.000       4.18400    2     ; C-C-C-O, prebuilt X-c-ca-X
 1727    1723    1724    1730         9       180.000      15.16700    2     ; C-C-C-C, prebuilt X-ca-ca-X
 1727    1728    1729    1730         9       180.000      15.16700    2     ; C-C-C-C, prebuilt X-ca-ca-X
 1727    1728    1729    1787         9       180.000      15.16700    2     ; C-C-C-H, prebuilt X-ca-ca-X
 1727    1728    1737    1731         9         0.000       0.00000    2     ; C-C-C-C, prebuilt X-c3-ca-X
 1727    1728    1737    1738         9         0.000       0.00000    2     ; C-C-C-C, prebuilt X-c3-ca-X
 1727    1728    1737    1742         9         0.000       0.00000    2     ; C-C-C-C, prebuilt X-c3-ca-X
 1728    1729    1730    1788         9       180.000      15.16700    2     ; C-C-C-H, prebuilt X-ca-ca-X
 1728    1737    1731    1732         9         0.000       0.00000    2     ; C-C-C-C, prebuilt X-c3-ca-X
 1728    1737    1731    1734         9         0.000       0.00000    2     ; C-C-C-C, prebuilt X-c3-ca-X
 1728    1737    1738    1739         9         0.000       0.65084    3     ; C-C-C-F, prebuilt X-c3-c3-X
 1728    1737    1738    1740         9         0.000       0.65084    3     ; C-C-C-F, prebuilt X-c3-c3-X
 1728    1737    1738    1741         9         0.000       0.65084    3     ; C-C-C-F, prebuilt X-c3-c3-X
 1728    1737    1742    1743         9         0.000       0.65084    3     ; C-C-C-F, prebuilt X-c3-c3-X
 1728    1737    1742    1744         9         0.000       0.65084    3     ; C-C-C-F, prebuilt X-c3-c3-X
 1728    1737    1742    1745         9         0.000       0.65084    3     ; C-C-C-F, prebuilt X-c3-c3-X
 1729    1728    1727    1786         9       180.000      15.16700    2     ; C-C-C-H, prebuilt X-ca-ca-X
 1729    1728    1737    1731         9         0.000       0.00000    2     ; C-C-C-C, prebuilt X-c3-ca-X
 1729    1728    1737    1738         9         0.000       0.00000    2     ; C-C-C-C, prebuilt X-c3-ca-X
 1729    1728    1737    1742         9         0.000       0.00000    2     ; C-C-C-C, prebuilt X-c3-ca-X
 1730    1729    1728    1737         9       180.000      15.16700    2     ; C-C-C-C, prebuilt X-ca-ca-X
 1731    1732    1733    1735         9       180.000      15.16700    2     ; C-C-C-C, prebuilt X-ca-ca-X
 1731    1732    1733    1747         9       180.000      15.16700    2     ; C-C-C-C, prebuilt X-ca-ca-X
 1731    1734    1736    1735         9       180.000      15.16700    2     ; C-C-C-C, prebuilt X-ca-ca-X
 1731    1734    1736    1791         9       180.000      15.16700    2     ; C-C-C-H, prebuilt X-ca-ca-X
 1731    1737    1738    1739         9         0.000       0.65084    3     ; C-C-C-F, prebuilt X-c3-c3-X
 1731    1737    1738    1740         9         0.000       0.65084    3     ; C-C-C-F, prebuilt X-c3-c3-X
 1731    1737    1738    1741         9         0.000       0.65084    3     ; C-C-C-F, prebuilt X-c3-c3-X
 1731    1737    1742    1743         9         0.000       0.65084    3     ; C-C-C-F, prebuilt X-c3-c3-X
 1731    1737    1742    1744         9         0.000       0.65084    3     ; C-C-C-F, prebuilt X-c3-c3-X
 1731    1737    1742    1745         9         0.000       0.65084    3     ; C-C-C-F, prebuilt X-c3-c3-X
 1732    1731    1734    1736         9       180.000      15.16700    2     ; C-C-C-C, prebuilt X-ca-ca-X
 1732    1731    1734    1789         9       180.000      15.16700    2     ; C-C-C-H, prebuilt X-ca-ca-X
 1732    1731    1737    1738         9         0.000       0.00000    2     ; C-C-C-C, prebuilt X-c3-ca-X
 1732    1731    1737    1742         9         0.000       0.00000    2     ; C-C-C-C, prebuilt X-c3-ca-X
 1732    1733    1735    1736         9       180.000      15.16700    2     ; C-C-C-C, prebuilt X-ca-ca-X
 1732    1733    1735    1749         9       180.000      15.16700    2     ; C-C-C-C, prebuilt X-ca-ca-X
 1732    1733    1747    1748         9       180.000       4.18400    2     ; C-C-C-N, prebuilt X-c-ca-X
 1732    1733    1747    1792         9       180.000       4.18400    2     ; C-C-C-O, prebuilt X-c-ca-X
 1733    1732    1731    1734         9       180.000      15.16700    2     ; C-C-C-C, prebuilt X-ca-ca-X
 1733    1732    1731    1737         9       180.000      15.16700    2     ; C-C-C-C, prebuilt X-ca-ca-X
 1733    1735    1736    1734         9       180.000      15.16700    2     ; C-C-C-C, prebuilt X-ca-ca-X
 1733    1735    1736    1791         9       180.000      15.16700    2     ; C-C-C-H, prebuilt X-ca-ca-X
 1733    1735    1749    1748         9       180.000       4.18400    2     ; C-C-C-N, prebuilt X-c-ca-X
 1733    1735    1749    1750         9       180.000       4.18400    2     ; C-C-C-O, prebuilt X-c-ca-X
 1733    1747    1748    1749         9       180.000      10.46000    2     ; C-C-N-C, prebuilt X-c-n-X
 1733    1747    1748    1864         9       180.000      10.46000    2     ; C-C-N-C, prebuilt X-c-n-X
 1734    1731    1732    1790         9       180.000      15.16700    2     ; C-C-C-H, prebuilt X-ca-ca-X
 1734    1731    1737    1738         9         0.000       0.00000    2     ; C-C-C-C, prebuilt X-c3-ca-X
 1734    1731    1737    1742         9         0.000       0.00000    2     ; C-C-C-C, prebuilt X-c3-ca-X
 1734    1736    1735    1749         9       180.000      15.16700    2     ; C-C-C-C, prebuilt X-ca-ca-X
 1735    1733    1732    1790         9       180.000      15.16700    2     ; C-C-C-H, prebuilt X-ca-ca-X
 1735    1733    1747    1748         9       180.000       4.18400    2     ; C-C-C-N, prebuilt X-c-ca-X
 1735    1733    1747    1792         9       180.000       4.18400    2     ; C-C-C-O, prebuilt X-c-ca-X
 1735    1736    1734    1789         9       180.000      15.16700    2     ; C-C-C-H, prebuilt X-ca-ca-X
 1735    1749    1748    1747         9       180.000      10.46000    2     ; C-C-N-C, prebuilt X-c-n-X
 1735    1749    1748    1864         9       180.000      10.46000    2     ; C-C-N-C, prebuilt X-c-n-X
 1736    1734    1731    1737         9       180.000      15.16700    2     ; C-C-C-C, prebuilt X-ca-ca-X
 1736    1735    1733    1747         9       180.000      15.16700    2     ; C-C-C-C, prebuilt X-ca-ca-X
 1736    1735    1749    1748         9       180.000       4.18400    2     ; C-C-C-N, prebuilt X-c-ca-X
 1736    1735    1749    1750         9       180.000       4.18400    2     ; C-C-C-O, prebuilt X-c-ca-X
 1737    1728    1727    1786         9       180.000      15.16700    2     ; C-C-C-H, prebuilt X-ca-ca-X
 1737    1728    1729    1787         9       180.000      15.16700    2     ; C-C-C-H, prebuilt X-ca-ca-X
 1737    1731    1732    1790         9       180.000      15.16700    2     ; C-C-C-H, prebuilt X-ca-ca-X
 1737    1731    1734    1789         9       180.000      15.16700    2     ; C-C-C-H, prebuilt X-ca-ca-X
 1738    1737    1742    1743         9         0.000       0.65084    3     ; C-C-C-F, prebuilt X-c3-c3-X
 1738    1737    1742    1744         9         0.000       0.65084    3     ; C-C-C-F, prebuilt X-c3-c3-X
 1738    1737    1742    1745         9         0.000       0.65084    3     ; C-C-C-F, prebuilt X-c3-c3-X
 1739    1738    1737    1742         9         0.000       0.65084    3     ; F-C-C-C, prebuilt X-c3-c3-X
 1740    1738    1737    1742         9         0.000       0.65084    3     ; F-C-C-C, prebuilt X-c3-c3-X
 1741    1738    1737    1742         9         0.000       0.65084    3     ; F-C-C-C, prebuilt X-c3-c3-X
 1747    1733    1732    1790         9       180.000      15.16700    2     ; C-C-C-H, prebuilt X-ca-ca-X
 1747    1733    1735    1749         9       180.000      15.16700    2     ; C-C-C-C, prebuilt X-ca-ca-X
 1747    1748    1749    1750         9       180.000      10.46000    2     ; C-N-C-O, prebuilt X-c-n-X
 1747    1748    1864    1863         9       180.000       1.88280    2     ; C-N-C-C, prebuilt X-ca-n-X
 1747    1748    1864    1865         9       180.000       1.88280    2     ; C-N-C-C, prebuilt X-ca-n-X
 1748    1864    1863    1862         9       180.000      15.16700    2     ; N-C-C-C, prebuilt X-ca-ca-X
 1748    1864    1863    1891         9       180.000      15.16700    2     ; N-C-C-H, prebuilt X-ca-ca-X
 1748    1864    1865    1866         9       180.000      15.16700    2     ; N-C-C-C, prebuilt X-ca-ca-X
 1748    1864    1865    1893         9       180.000      15.16700    2     ; N-C-C-H, prebuilt X-ca-ca-X
 1749    1735    1736    1791         9       180.000      15.16700    2     ; C-C-C-H, prebuilt X-ca-ca-X
 1749    1748    1747    1792         9       180.000      10.46000    2     ; C-N-C-O, prebuilt X-c-n-X
 1749    1748    1864    1863         9       180.000       1.88280    2     ; C-N-C-C, prebuilt X-ca-n-X
 1749    1748    1864    1865         9       180.000       1.88280    2     ; C-N-C-C, prebuilt X-ca-n-X
 1750    1749    1748    1864         9       180.000      10.46000    2     ; O-C-N-C, prebuilt X-c-n-X
 1751    1714    1712    1777         9       180.000       2.61500    2     ; C-C-N-C, prebuilt X-c2-na-X
 1751    1714    1712    1803         9       180.000       2.61500    2     ; C-C-N-C, prebuilt X-c2-na-X
 1751    1714    1713    1776         9       180.000       2.61500    2     ; C-C-N-C, prebuilt X-c2-na-X
 1751    1752    1754    1756         9       180.000      15.16700    2     ; C-C-C-C, prebuilt X-ca-ca-X
 1751    1752    1754    1794         9       180.000      15.16700    2     ; C-C-C-H, prebuilt X-ca-ca-X
 1751    1753    1755    1756         9       180.000      15.16700    2     ; C-C-C-C, prebuilt X-ca-ca-X
 1751    1753    1755    1801         9       180.000      15.16700    2     ; C-C-C-H, prebuilt X-ca-ca-X
 1752    1751    1753    1755         9       180.000      15.16700    2     ; C-C-C-C, prebuilt X-ca-ca-X
 1752    1751    1753    1795         9       180.000      15.16700    2     ; C-C-C-H, prebuilt X-ca-ca-X
 1752    1754    1756    1755         9       180.000      15.16700    2     ; C-C-C-C, prebuilt X-ca-ca-X
 1752    1754    1756    1757         9       180.000      15.16700    2     ; C-C-C-C, prebuilt X-ca-ca-X
 1753    1751    1752    1754         9       180.000      15.16700    2     ; C-C-C-C, prebuilt X-ca-ca-X
 1753    1751    1752    1793         9       180.000      15.16700    2     ; C-C-C-H, prebuilt X-ca-ca-X
 1753    1755    1756    1754         9       180.000      15.16700    2     ; C-C-C-C, prebuilt X-ca-ca-X
 1753    1755    1756    1757         9       180.000      15.16700    2     ; C-C-C-C, prebuilt X-ca-ca-X
 1754    1756    1755    1801         9       180.000      15.16700    2     ; C-C-C-H, prebuilt X-ca-ca-X
 1754    1756    1757    1758         9       180.000       2.92880    2     ; C-C-C-N, prebuilt X-c2-ca-X
 1754    1756    1757    1759         9       180.000       2.92880    2     ; C-C-C-N, prebuilt X-c2-ca-X
 1755    1756    1754    1794         9       180.000      15.16700    2     ; C-C-C-H, prebuilt X-ca-ca-X
 1755    1756    1757    1758         9       180.000       2.92880    2     ; C-C-C-N, prebuilt X-c2-ca-X
 1755    1756    1757    1759         9       180.000       2.92880    2     ; C-C-C-N, prebuilt X-c2-ca-X
 1756    1754    1752    1793         9       180.000      15.16700    2     ; C-C-C-H, prebuilt X-ca-ca-X
 1756    1755    1753    1795         9       180.000      15.16700    2     ; C-C-C-H, prebuilt X-ca-ca-X
 1756    1757    1758    1760         9       180.000       2.61500    2     ; C-C-N-C, prebuilt X-c2-na-X
 1756    1757    1758    1766         9       180.000       2.61500    2     ; C-C-N-C, prebuilt X-c2-na-X
 1756    1757    1759    1761         9       180.000       2.61500    2     ; C-C-N-C, prebuilt X-c2-na-X
 1756    1757    1759    1762         9       180.000       2.61500    2     ; C-C-N-C, prebuilt X-c2-na-X
 1757    1756    1754    1794         9       180.000      15.16700    2     ; C-C-C-H, prebuilt X-ca-ca-X
 1757    1756    1755    1801         9       180.000      15.16700    2     ; C-C-C-H, prebuilt X-ca-ca-X
 1757    1758    1760    1761         9       180.000       2.61500    2     ; C-N-C-C, prebuilt X-c2-na-X
 1757    1758    1760    1800         9       180.000       2.61500    2     ; C-N-C-H, prebuilt X-c2-na-X
 1757    1758    1766    1767         9       180.000       1.25520    2     ; C-N-C-C, prebuilt X-ca-na-X
 1757    1758    1766    1771         9       180.000       1.25520    2     ; C-N-C-C, prebuilt X-ca-na-X
 1757    1759    1761    1760         9       180.000       2.61500    2     ; C-N-C-C, prebuilt X-c2-na-X
 1757    1759    1761    1772         9       180.000       2.61500    2     ; C-N-C-C, prebuilt X-c2-na-X
 1757    1759    1762    1763         9         0.000       0.00000    2     ; C-N-C-H, prebuilt X-c3-na-X
 1757    1759    1762    1764         9         0.000       0.00000    2     ; C-N-C-H, prebuilt X-c3-na-X
 1757    1759    1762    1765         9         0.000       0.00000    2     ; C-N-C-H, prebuilt X-c3-na-X
 1758    1757    1759    1761         9       180.000       2.61500    2     ; N-C-N-C, prebuilt X-c2-na-X
 1758    1757    1759    1762         9       180.000       2.61500    2     ; N-C-N-C, prebuilt X-c2-na-X
 1758    1760    1761    1759         9       180.000      27.82360    2     ; N-C-C-N, prebuilt X-c2-c2-X
 1758    1760    1761    1772         9       180.000      27.82360    2     ; N-C-C-C, prebuilt X-c2-c2-X
 1758    1766    1767    1768         9       180.000      15.16700    2     ; N-C-C-C, prebuilt X-ca-ca-X
 1758    1766    1767    1797         9       180.000      15.16700    2     ; N-C-C-H, prebuilt X-ca-ca-X
 1758    1766    1771    1770         9       180.000      15.16700    2     ; N-C-C-C, prebuilt X-ca-ca-X
 1758    1766    1771    1799         9       180.000      15.16700    2     ; N-C-C-H, prebuilt X-ca-ca-X
 1759    1757    1758    1760         9       180.000       2.61500    2     ; N-C-N-C, prebuilt X-c2-na-X
 1759    1757    1758    1766         9       180.000       2.61500    2     ; N-C-N-C, prebuilt X-c2-na-X
 1759    1761    1760    1800         9       180.000      27.82360    2     ; N-C-C-H, prebuilt X-c2-c2-X
 1759    1761    1772    1773         9         0.000       0.00000    2     ; N-C-C-F, prebuilt X-c2-c3-X
 1759    1761    1772    1774         9         0.000       0.00000    2     ; N-C-C-F, prebuilt X-c2-c3-X
 1759    1761    1772    1775         9         0.000       0.00000    2     ; N-C-C-F, prebuilt X-c2-c3-X
 1760    1758    1766    1767         9       180.000       1.25520    2     ; C-N-C-C, prebuilt X-ca-na-X
 1760    1758    1766    1771         9       180.000       1.25520    2     ; C-N-C-C, prebuilt X-ca-na-X
 1760    1761    1759    1762         9       180.000       2.61500    2     ; C-C-N-C, prebuilt X-c2-na-X
 1760    1761    1772    1773         9         0.000       0.00000    2     ; C-C-C-F, prebuilt X-c2-c3-X
 1760    1761    1772    1774         9         0.000       0.00000    2     ; C-C-C-F, prebuilt X-c2-c3-X
 1760    1761    1772    1775         9         0.000       0.00000    2     ; C-C-C-F, prebuilt X-c2-c3-X
 1761    1759    1762    1763         9         0.000       0.00000    2     ; C-N-C-H, prebuilt X-c3-na-X
 1761    1759    1762    1764         9         0.000       0.00000    2     ; C-N-C-H, prebuilt X-c3-na-X
 1761    1759    1762    1765         9         0.000       0.00000    2     ; C-N-C-H, prebuilt X-c3-na-X
 1761    1760    1758    1766         9       180.000       2.61500    2     ; C-C-N-C, prebuilt X-c2-na-X
 1762    1759    1761    1772         9       180.000       2.61500    2     ; C-N-C-C, prebuilt X-c2-na-X
 1766    1758    1760    1800         9       180.000       2.61500    2     ; C-N-C-H, prebuilt X-c2-na-X
 1766    1767    1768    1769         9       180.000      15.16700    2     ; C-C-C-C, prebuilt X-ca-ca-X
 1766    1767    1768    1796         9       180.000      15.16700    2     ; C-C-C-H, prebuilt X-ca-ca-X
 1766    1771    1770    1769         9       180.000      15.16700    2     ; C-C-C-C, prebuilt X-ca-ca-X
 1766    1771    1770    1798         9       180.000      15.16700    2     ; C-C-C-H, prebuilt X-ca-ca-X
 1767    1766    1771    1770         9       180.000      15.16700    2     ; C-C-C-C, prebuilt X-ca-ca-X
 1767    1766    1771    1799         9       180.000      15.16700    2     ; C-C-C-H, prebuilt X-ca-ca-X
 1767    1768    1769    1770         9       180.000      15.16700    2     ; C-C-C-C, prebuilt X-ca-ca-X
 1768    1767    1766    1771         9       180.000      15.16700    2     ; C-C-C-C, prebuilt X-ca-ca-X
 1768    1769    1770    1771         9       180.000      15.16700    2     ; C-C-C-C, prebuilt X-ca-ca-X
 1768    1769    1770    1798         9       180.000      15.16700    2     ; C-C-C-H, prebuilt X-ca-ca-X
 1769    1768    1767    1797         9       180.000      15.16700    2     ; C-C-C-H, prebuilt X-ca-ca-X
 1769    1770    1771    1799         9       180.000      15.16700    2     ; C-C-C-H, prebuilt X-ca-ca-X
 1770    1769    1768    1796         9       180.000      15.16700    2     ; C-C-C-H, prebuilt X-ca-ca-X
 1771    1766    1767    1797         9       180.000      15.16700    2     ; C-C-C-H, prebuilt X-ca-ca-X
 1772    1761    1760    1800         9       180.000      27.82360    2     ; C-C-C-H, prebuilt X-c2-c2-X
 1776    1777    1712    1803         9       180.000       2.61500    2     ; C-C-N-C, prebuilt X-c2-na-X
 1776    1777    1778    1779         9         0.000       0.00000    2     ; C-C-C-F, prebuilt X-c2-c3-X
 1776    1777    1778    1780         9         0.000       0.00000    2     ; C-C-C-F, prebuilt X-c2-c3-X
 1776    1777    1778    1802         9         0.000       0.00000    2     ; C-C-C-F, prebuilt X-c2-c3-X
 1777    1712    1803    1804         9         0.000       0.00000    2     ; C-N-C-H, prebuilt X-c3-na-X
 1777    1712    1803    1805         9         0.000       0.00000    2     ; C-N-C-H, prebuilt X-c3-na-X
 1777    1712    1803    1806         9         0.000       0.00000    2     ; C-N-C-H, prebuilt X-c3-na-X
 1778    1777    1712    1803         9       180.000       2.61500    2     ; C-C-N-C, prebuilt X-c2-na-X
 1778    1777    1776    1781         9       180.000      27.82360    2     ; C-C-C-H, prebuilt X-c2-c2-X
 1782    1716    1717    1783         9       180.000      15.16700    2     ; H-C-C-H, prebuilt X-ca-ca-X
 1784    1720    1719    1785         9       180.000      15.16700    2     ; H-C-C-H, prebuilt X-ca-ca-X
 1787    1729    1730    1788         9       180.000      15.16700    2     ; H-C-C-H, prebuilt X-ca-ca-X
 1789    1734    1736    1791         9       180.000      15.16700    2     ; H-C-C-H, prebuilt X-ca-ca-X
 1792    1747    1748    1864         9       180.000      10.46000    2     ; O-C-N-C, prebuilt X-c-n-X
 1793    1752    1754    1794         9       180.000      15.16700    2     ; H-C-C-H, prebuilt X-ca-ca-X
 1795    1753    1755    1801         9       180.000      15.16700    2     ; H-C-C-H, prebuilt X-ca-ca-X
 1796    1768    1767    1797         9       180.000      15.16700    2     ; H-C-C-H, prebuilt X-ca-ca-X
 1798    1770    1771    1799         9       180.000      15.16700    2     ; H-C-C-H, prebuilt X-ca-ca-X
 1807    1809    1808    1810         9       180.000       2.61500    2     ; N-C-N-C, prebuilt X-c2-na-X
 1807    1809    1808    1871         9       180.000       2.61500    2     ; N-C-N-C, prebuilt X-c2-na-X
 1807    1809    1846    1847         9       180.000       2.92880    2     ; N-C-C-C, prebuilt X-c2-ca-X
 1807    1809    1846    1848         9       180.000       2.92880    2     ; N-C-C-C, prebuilt X-c2-ca-X
 1807    1872    1871    1808         9       180.000      27.82360    2     ; N-C-C-N, prebuilt X-c2-c2-X
 1807    1872    1871    1876         9       180.000      27.82360    2     ; N-C-C-H, prebuilt X-c2-c2-X
 1807    1872    1873    1874         9         0.000       0.00000    2     ; N-C-C-F, prebuilt X-c2-c3-X
 1807    1872    1873    1875         9         0.000       0.00000    2     ; N-C-C-F, prebuilt X-c2-c3-X
 1807    1872    1873    1897         9         0.000       0.00000    2     ; N-C-C-F, prebuilt X-c2-c3-X
 1808    1809    1807    1872         9       180.000       2.61500    2     ; N-C-N-C, prebuilt X-c2-na-X
 1808    1809    1807    1898         9       180.000       2.61500    2     ; N-C-N-C, prebuilt X-c2-na-X
 1808    1809    1846    1847         9       180.000       2.92880    2     ; N-C-C-C, prebuilt X-c2-ca-X
 1808    1809    1846    1848         9       180.000       2.92880    2     ; N-C-C-C, prebuilt X-c2-ca-X
 1808    1810    1811    1812         9       180.000      15.16700    2     ; N-C-C-C, prebuilt X-ca-ca-X
 1808    1810    1811    1877         9       180.000      15.16700    2     ; N-C-C-H, prebuilt X-ca-ca-X
 1808    1810    1815    1814         9       180.000      15.16700    2     ; N-C-C-C, prebuilt X-ca-ca-X
 1808    1810    1815    1879         9       180.000      15.16700    2     ; N-C-C-H, prebuilt X-ca-ca-X
 1808    1871    1872    1873         9       180.000      27.82360    2     ; N-C-C-C, prebuilt X-c2-c2-X
 1809    1807    1872    1871         9       180.000       2.61500    2     ; C-N-C-C, prebuilt X-c2-na-X
 1809    1807    1872    1873         9       180.000       2.61500    2     ; C-N-C-C, prebuilt X-c2-na-X
 1809    1807    1898    1899         9         0.000       0.00000    2     ; C-N-C-H, prebuilt X-c3-na-X
 1809    1807    1898    1900         9         0.000       0.00000    2     ; C-N-C-H, prebuilt X-c3-na-X
 1809    1807    1898    1901         9         0.000       0.00000    2     ; C-N-C-H, prebuilt X-c3-na-X
 1809    1808    1810    1811         9       180.000       1.25520    2     ; C-N-C-C, prebuilt X-ca-na-X
 1809    1808    1810    1815         9       180.000       1.25520    2     ; C-N-C-C, prebuilt X-ca-na-X
 1809    1808    1871    1872         9       180.000       2.61500    2     ; C-N-C-C, prebuilt X-c2-na-X
 1809    1808    1871    1876         9       180.000       2.61500    2     ; C-N-C-H, prebuilt X-c2-na-X
 1809    1846    1847    1849         9       180.000      15.16700    2     ; C-C-C-C, prebuilt X-ca-ca-X
 1809    1846    1847    1888         9       180.000      15.16700    2     ; C-C-C-H, prebuilt X-ca-ca-X
 1809    1846    1848    1850         9       180.000      15.16700    2     ; C-C-C-C, prebuilt X-ca-ca-X
 1809    1846    1848    1890         9       180.000      15.16700    2     ; C-C-C-H, prebuilt X-ca-ca-X
 1810    1808    1809    1846         9       180.000       2.61500    2     ; C-N-C-C, prebuilt X-c2-na-X
 1810    1808    1871    1872         9       180.000       2.61500    2     ; C-N-C-C, prebuilt X-c2-na-X
 1810    1808    1871    1876         9       180.000       2.61500    2     ; C-N-C-H, prebuilt X-c2-na-X
 1810    1811    1812    1813         9       180.000      15.16700    2     ; C-C-C-C, prebuilt X-ca-ca-X
 1810    1811    1812    1878         9       180.000      15.16700    2     ; C-C-C-H, prebuilt X-ca-ca-X
 1810    1815    1814    1813         9       180.000      15.16700    2     ; C-C-C-C, prebuilt X-ca-ca-X
 1810    1815    1814    1880         9       180.000      15.16700    2     ; C-C-C-H, prebuilt X-ca-ca-X
 1811    1810    1808    1871         9       180.000       1.25520    2     ; C-C-N-C, prebuilt X-ca-na-X
 1811    1810    1815    1814         9       180.000      15.16700    2     ; C-C-C-C, prebuilt X-ca-ca-X
 1811    1810    1815    1879         9       180.000      15.16700    2     ; C-C-C-H, prebuilt X-ca-ca-X
 1811    1812    1813    1814         9       180.000      15.16700    2     ; C-C-C-C, prebuilt X-ca-ca-X
 1811    1812    1813    1816         9       180.000      15.16700    2     ; C-C-C-N, prebuilt X-ca-ca-X
 1812    1811    1810    1815         9       180.000      15.16700    2     ; C-C-C-C, prebuilt X-ca-ca-X
 1812    1813    1814    1815         9       180.000      15.16700    2     ; C-C-C-C, prebuilt X-ca-ca-X
 1812    1813    1814    1880         9       180.000      15.16700    2     ; C-C-C-H, prebuilt X-ca-ca-X
 1812    1813    1816    1817         9       180.000       1.88280    2     ; C-C-N-C, prebuilt X-ca-n-X
 1812    1813    1816    1820         9       180.000       1.88280    2     ; C-C-N-C, prebuilt X-ca-n-X
 1813    1812    1811    1877         9       180.000      15.16700    2     ; C-C-C-H, prebuilt X-ca-ca-X
 1813    1814    1815    1879         9       180.000      15.16700    2     ; C-C-C-H, prebuilt X-ca-ca-X
 1813    1816    1817    1818         9       180.000      10.46000    2     ; C-N-C-C, prebuilt X-c-n-X
 1813    1816    1817    1841         9       180.000      10.46000    2     ; C-N-C-O, prebuilt X-c-n-X
 1813    1816    1820    1819         9       180.000      10.46000    2     ; C-N-C-C, prebuilt X-c-n-X
 1813    1816    1820    1821         9       180.000      10.46000    2     ; C-N-C-O, prebuilt X-c-n-X
 1814    1813    1812    1878         9       180.000      15.16700    2     ; C-C-C-H, prebuilt X-ca-ca-X
 1814    1813    1816    1817         9       180.000       1.88280    2     ; C-C-N-C, prebuilt X-ca-n-X
 1814    1813    1816    1820         9       180.000       1.88280    2     ; C-C-N-C, prebuilt X-ca-n-X
 1815    1810    1808    1871         9       180.000       1.25520    2     ; C-C-N-C, prebuilt X-ca-na-X
 1815    1810    1811    1877         9       180.000      15.16700    2     ; C-C-C-H, prebuilt X-ca-ca-X
 1815    1814    1813    1816         9       180.000      15.16700    2     ; C-C-C-N, prebuilt X-ca-ca-X
 1816    1813    1812    1878         9       180.000      15.16700    2     ; N-C-C-H, prebuilt X-ca-ca-X
 1816    1813    1814    1880         9       180.000      15.16700    2     ; N-C-C-H, prebuilt X-ca-ca-X
 1816    1817    1818    1819         9       180.000       4.18400    2     ; N-C-C-C, prebuilt X-c-ca-X
 1816    1817    1818    1822         9       180.000       4.18400    2     ; N-C-C-C, prebuilt X-c-ca-X
 1816    1820    1819    1818         9       180.000       4.18400    2     ; N-C-C-C, prebuilt X-c-ca-X
 1816    1820    1819    1825         9       180.000       4.18400    2     ; N-C-C-C, prebuilt X-c-ca-X
 1817    1816    1820    1819         9       180.000      10.46000    2     ; C-N-C-C, prebuilt X-c-n-X
 1817    1816    1820    1821         9       180.000      10.46000    2     ; C-N-C-O, prebuilt X-c-n-X
 1817    1818    1819    1820         9       180.000      15.16700    2     ; C-C-C-C, prebuilt X-ca-ca-X
 1817    1818    1819    1825         9       180.000      15.16700    2     ; C-C-C-C, prebuilt X-ca-ca-X
 1817    1818    1822    1823         9       180.000      15.16700    2     ; C-C-C-C, prebuilt X-ca-ca-X
 1817    1818    1822    1881         9       180.000      15.16700    2     ; C-C-C-H, prebuilt X-ca-ca-X
 1818    1817    1816    1820         9       180.000      10.46000    2     ; C-C-N-C, prebuilt X-c-n-X
 1818    1819    1820    1821         9       180.000       4.18400    2     ; C-C-C-O, prebuilt X-c-ca-X
 1818    1819    1825    1824         9       180.000      15.16700    2     ; C-C-C-C, prebuilt X-ca-ca-X
 1818    1819    1825    1883         9       180.000      15.16700    2     ; C-C-C-H, prebuilt X-ca-ca-X
 1818    1822    1823    1824         9       180.000      15.16700    2     ; C-C-C-C, prebuilt X-ca-ca-X
 1818    1822    1823    1832         9       180.000      15.16700    2     ; C-C-C-C, prebuilt X-ca-ca-X
 1819    1818    1817    1841         9       180.000       4.18400    2     ; C-C-C-O, prebuilt X-c-ca-X
 1819    1818    1822    1823         9       180.000      15.16700    2     ; C-C-C-C, prebuilt X-ca-ca-X
 1819    1818    1822    1881         9       180.000      15.16700    2     ; C-C-C-H, prebuilt X-ca-ca-X
 1819    1825    1824    1823         9       180.000      15.16700    2     ; C-C-C-C, prebuilt X-ca-ca-X
 1819    1825    1824    1882         9       180.000      15.16700    2     ; C-C-C-H, prebuilt X-ca-ca-X
 1820    1816    1817    1841         9       180.000      10.46000    2     ; C-N-C-O, prebuilt X-c-n-X
 1820    1819    1818    1822         9       180.000      15.16700    2     ; C-C-C-C, prebuilt X-ca-ca-X
 1820    1819    1825    1824         9       180.000      15.16700    2     ; C-C-C-C, prebuilt X-ca-ca-X
 1820    1819    1825    1883         9       180.000      15.16700    2     ; C-C-C-H, prebuilt X-ca-ca-X
 1821    1820    1819    1825         9       180.000       4.18400    2     ; O-C-C-C, prebuilt X-c-ca-X
 1822    1818    1817    1841         9       180.000       4.18400    2     ; C-C-C-O, prebuilt X-c-ca-X
 1822    1818    1819    1825         9       180.000      15.16700    2     ; C-C-C-C, prebuilt X-ca-ca-X
 1822    1823    1824    1825         9       180.000      15.16700    2     ; C-C-C-C, prebuilt X-ca-ca-X
 1822    1823    1824    1882         9       180.000      15.16700    2     ; C-C-C-H, prebuilt X-ca-ca-X
 1822    1823    1832    1826         9         0.000       0.00000    2     ; C-C-C-C, prebuilt X-c3-ca-X
 1822    1823    1832    1833         9         0.000       0.00000    2     ; C-C-C-C, prebuilt X-c3-ca-X
 1822    1823    1832    1837         9         0.000       0.00000    2     ; C-C-C-C, prebuilt X-c3-ca-X
 1823    1824    1825    1883         9       180.000      15.16700    2     ; C-C-C-H, prebuilt X-ca-ca-X
 1823    1832    1826    1827         9         0.000       0.00000    2     ; C-C-C-C, prebuilt X-c3-ca-X
 1823    1832    1826    1829         9         0.000       0.00000    2     ; C-C-C-C, prebuilt X-c3-ca-X
 1823    1832    1833    1834         9         0.000       0.65084    3     ; C-C-C-F, prebuilt X-c3-c3-X
 1823    1832    1833    1835         9         0.000       0.65084    3     ; C-C-C-F, prebuilt X-c3-c3-X
 1823    1832    1833    1836         9         0.000       0.65084    3     ; C-C-C-F, prebuilt X-c3-c3-X
 1823    1832    1837    1838         9         0.000       0.65084    3     ; C-C-C-F, prebuilt X-c3-c3-X
 1823    1832    1837    1839         9         0.000       0.65084    3     ; C-C-C-F, prebuilt X-c3-c3-X
 1823    1832    1837    1840         9         0.000       0.65084    3     ; C-C-C-F, prebuilt X-c3-c3-X
 1824    1823    1822    1881         9       180.000      15.16700    2     ; C-C-C-H, prebuilt X-ca-ca-X
 1824    1823    1832    1826         9         0.000       0.00000    2     ; C-C-C-C, prebuilt X-c3-ca-X
 1824    1823    1832    1833         9         0.000       0.00000    2     ; C-C-C-C, prebuilt X-c3-ca-X
 1824    1823    1832    1837         9         0.000       0.00000    2     ; C-C-C-C, prebuilt X-c3-ca-X
 1825    1824    1823    1832         9       180.000      15.16700    2     ; C-C-C-C, prebuilt X-ca-ca-X
 1826    1827    1828    1830         9       180.000      15.16700    2     ; C-C-C-C, prebuilt X-ca-ca-X
 1826    1827    1828    1842         9       180.000      15.16700    2     ; C-C-C-C, prebuilt X-ca-ca-X
 1826    1829    1831    1830         9       180.000      15.16700    2     ; C-C-C-C, prebuilt X-ca-ca-X
 1826    1829    1831    1886         9       180.000      15.16700    2     ; C-C-C-H, prebuilt X-ca-ca-X
 1826    1832    1833    1834         9         0.000       0.65084    3     ; C-C-C-F, prebuilt X-c3-c3-X
 1826    1832    1833    1835         9         0.000       0.65084    3     ; C-C-C-F, prebuilt X-c3-c3-X
 1826    1832    1833    1836         9         0.000       0.65084    3     ; C-C-C-F, prebuilt X-c3-c3-X
 1826    1832    1837    1838         9         0.000       0.65084    3     ; C-C-C-F, prebuilt X-c3-c3-X
 1826    1832    1837    1839         9         0.000       0.65084    3     ; C-C-C-F, prebuilt X-c3-c3-X
 1826    1832    1837    1840         9         0.000       0.65084    3     ; C-C-C-F, prebuilt X-c3-c3-X
 1827    1826    1829    1831         9       180.000      15.16700    2     ; C-C-C-C, prebuilt X-ca-ca-X
 1827    1826    1829    1884         9       180.000      15.16700    2     ; C-C-C-H, prebuilt X-ca-ca-X
 1827    1826    1832    1833         9         0.000       0.00000    2     ; C-C-C-C, prebuilt X-c3-ca-X
 1827    1826    1832    1837         9         0.000       0.00000    2     ; C-C-C-C, prebuilt X-c3-ca-X
 1827    1828    1830    1831         9       180.000      15.16700    2     ; C-C-C-C, prebuilt X-ca-ca-X
 1827    1828    1830    1844         9       180.000      15.16700    2     ; C-C-C-C, prebuilt X-ca-ca-X
 1827    1828    1842    1843         9       180.000       4.18400    2     ; C-C-C-N, prebuilt X-c-ca-X
 1827    1828    1842    1887         9       180.000       4.18400    2     ; C-C-C-O, prebuilt X-c-ca-X
 1828    1827    1826    1829         9       180.000      15.16700    2     ; C-C-C-C, prebuilt X-ca-ca-X
 1828    1827    1826    1832         9       180.000      15.16700    2     ; C-C-C-C, prebuilt X-ca-ca-X
 1828    1830    1831    1829         9       180.000      15.16700    2     ; C-C-C-C, prebuilt X-ca-ca-X
 1828    1830    1831    1886         9       180.000      15.16700    2     ; C-C-C-H, prebuilt X-ca-ca-X
 1828    1830    1844    1843         9       180.000       4.18400    2     ; C-C-C-N, prebuilt X-c-ca-X
 1828    1830    1844    1845         9       180.000       4.18400    2     ; C-C-C-O, prebuilt X-c-ca-X
 1828    1842    1843    1844         9       180.000      10.46000    2     ; C-C-N-C, prebuilt X-c-n-X
 1828    1842    1843    1902         9       180.000      10.46000    2     ; C-C-N-H, prebuilt X-c-n-X
 1829    1826    1827    1885         9       180.000      15.16700    2     ; C-C-C-H, prebuilt X-ca-ca-X
 1829    1826    1832    1833         9         0.000       0.00000    2     ; C-C-C-C, prebuilt X-c3-ca-X
 1829    1826    1832    1837         9         0.000       0.00000    2     ; C-C-C-C, prebuilt X-c3-ca-X
 1829    1831    1830    1844         9       180.000      15.16700    2     ; C-C-C-C, prebuilt X-ca-ca-X
 1830    1828    1827    1885         9       180.000      15.16700    2     ; C-C-C-H, prebuilt X-ca-ca-X
 1830    1828    1842    1843         9       180.000       4.18400    2     ; C-C-C-N, prebuilt X-c-ca-X
 1830    1828    1842    1887         9       180.000       4.18400    2     ; C-C-C-O, prebuilt X-c-ca-X
 1830    1831    1829    1884         9       180.000      15.16700    2     ; C-C-C-H, prebuilt X-ca-ca-X
 1830    1844    1843    1842         9       180.000      10.46000    2     ; C-C-N-C, prebuilt X-c-n-X
 1830    1844    1843    1902         9       180.000      10.46000    2     ; C-C-N-H, prebuilt X-c-n-X
 1831    1829    1826    1832         9       180.000      15.16700    2     ; C-C-C-C, prebuilt X-ca-ca-X
 1831    1830    1828    1842         9       180.000      15.16700    2     ; C-C-C-C, prebuilt X-ca-ca-X
 1831    1830    1844    1843         9       180.000       4.18400    2     ; C-C-C-N, prebuilt X-c-ca-X
 1831    1830    1844    1845         9       180.000       4.18400    2     ; C-C-C-O, prebuilt X-c-ca-X
 1832    1823    1822    1881         9       180.000      15.16700    2     ; C-C-C-H, prebuilt X-ca-ca-X
 1832    1823    1824    1882         9       180.000      15.16700    2     ; C-C-C-H, prebuilt X-ca-ca-X
 1832    1826    1827    1885         9       180.000      15.16700    2     ; C-C-C-H, prebuilt X-ca-ca-X
 1832    1826    1829    1884         9       180.000      15.16700    2     ; C-C-C-H, prebuilt X-ca-ca-X
 1833    1832    1837    1838         9         0.000       0.65084    3     ; C-C-C-F, prebuilt X-c3-c3-X
 1833    1832    1837    1839         9         0.000       0.65084    3     ; C-C-C-F, prebuilt X-c3-c3-X
 1833    1832    1837    1840         9         0.000       0.65084    3     ; C-C-C-F, prebuilt X-c3-c3-X
 1834    1833    1832    1837         9         0.000       0.65084    3     ; F-C-C-C, prebuilt X-c3-c3-X
 1835    1833    1832    1837         9         0.000       0.65084    3     ; F-C-C-C, prebuilt X-c3-c3-X
 1836    1833    1832    1837         9         0.000       0.65084    3     ; F-C-C-C, prebuilt X-c3-c3-X
 1842    1828    1827    1885         9       180.000      15.16700    2     ; C-C-C-H, prebuilt X-ca-ca-X
 1842    1828    1830    1844         9       180.000      15.16700    2     ; C-C-C-C, prebuilt X-ca-ca-X
 1842    1843    1844    1845         9       180.000      10.46000    2     ; C-N-C-O, prebuilt X-c-n-X
 1844    1830    1831    1886         9       180.000      15.16700    2     ; C-C-C-H, prebuilt X-ca-ca-X
 1844    1843    1842    1887         9       180.000      10.46000    2     ; C-N-C-O, prebuilt X-c-n-X
 1845    1844    1843    1902         9       180.000      10.46000    2     ; O-C-N-H, prebuilt hn-n-c-o
 1845    1844    1843    1902         9         0.000       8.36800    1     ; O-C-N-H, prebuilt hn-n-c-o
 1846    1809    1807    1872         9       180.000       2.61500    2     ; C-C-N-C, prebuilt X-c2-na-X
 1846    1809    1807    1898         9       180.000       2.61500    2     ; C-C-N-C, prebuilt X-c2-na-X
 1846    1809    1808    1871         9       180.000       2.61500    2     ; C-C-N-C, prebuilt X-c2-na-X
 1846    1847    1849    1851         9       180.000      15.16700    2     ; C-C-C-C, prebuilt X-ca-ca-X
 1846    1847    1849    1889         9       180.000      15.16700    2     ; C-C-C-H, prebuilt X-ca-ca-X
 1846    1848    1850    1851         9       180.000      15.16700    2     ; C-C-C-C, prebuilt X-ca-ca-X
 1846    1848    1850    1896         9       180.000      15.16700    2     ; C-C-C-H, prebuilt X-ca-ca-X
 1847    1846    1848    1850         9       180.000      15.16700    2     ; C-C-C-C, prebuilt X-ca-ca-X
 1847    1846    1848    1890         9       180.000      15.16700    2     ; C-C-C-H, prebuilt X-ca-ca-X
 1847    1849    1851    1850         9       180.000      15.16700    2     ; C-C-C-C, prebuilt X-ca-ca-X
 1847    1849    1851    1852         9       180.000      15.16700    2     ; C-C-C-C, prebuilt X-ca-ca-X
 1848    1846    1847    1849         9       180.000      15.16700    2     ; C-C-C-C, prebuilt X-ca-ca-X
 1848    1846    1847    1888         9       180.000      15.16700    2     ; C-C-C-H, prebuilt X-ca-ca-X
 1848    1850    1851    1849         9       180.000      15.16700    2     ; C-C-C-C, prebuilt X-ca-ca-X
 1848    1850    1851    1852         9       180.000      15.16700    2     ; C-C-C-C, prebuilt X-ca-ca-X
 1849    1851    1850    1896         9       180.000      15.16700    2     ; C-C-C-H, prebuilt X-ca-ca-X
 1849    1851    1852    1853         9       180.000       2.92880    2     ; C-C-C-N, prebuilt X-c2-ca-X
 1849    1851    1852    1854         9       180.000       2.92880    2     ; C-C-C-N, prebuilt X-c2-ca-X
 1850    1851    1849    1889         9       180.000      15.16700    2     ; C-C-C-H, prebuilt X-ca-ca-X
 1850    1851    1852    1853         9       180.000       2.92880    2     ; C-C-C-N, prebuilt X-c2-ca-X
 1850    1851    1852    1854         9       180.000       2.92880    2     ; C-C-C-N, prebuilt X-c2-ca-X
 1851    1849    1847    1888         9       180.000      15.16700    2     ; C-C-C-H, prebuilt X-ca-ca-X
 1851    1850    1848    1890         9       180.000      15.16700    2     ; C-C-C-H, prebuilt X-ca-ca-X
 1851    1852    1853    1855         9       180.000       2.61500    2     ; C-C-N-C, prebuilt X-c2-na-X
 1851    1852    1853    1861         9       180.000       2.61500    2     ; C-C-N-C, prebuilt X-c2-na-X
 1851    1852    1854    1856         9       180.000       2.61500    2     ; C-C-N-C, prebuilt X-c2-na-X
 1851    1852    1854    1857         9       180.000       2.61500    2     ; C-C-N-C, prebuilt X-c2-na-X
 1852    1851    1849    1889         9       180.000      15.16700    2     ; C-C-C-H, prebuilt X-ca-ca-X
 1852    1851    1850    1896         9       180.000      15.16700    2     ; C-C-C-H, prebuilt X-ca-ca-X
 1852    1853    1855    1856         9       180.000       2.61500    2     ; C-N-C-C, prebuilt X-c2-na-X
 1852    1853    1855    1895         9       180.000       2.61500    2     ; C-N-C-H, prebuilt X-c2-na-X
 1852    1853    1861    1862         9       180.000       1.25520    2     ; C-N-C-C, prebuilt X-ca-na-X
 1852    1853    1861    1866         9       180.000       1.25520    2     ; C-N-C-C, prebuilt X-ca-na-X
 1852    1854    1856    1855         9       180.000       2.61500    2     ; C-N-C-C, prebuilt X-c2-na-X
 1852    1854    1856    1867         9       180.000       2.61500    2     ; C-N-C-C, prebuilt X-c2-na-X
 1852    1854    1857    1858         9         0.000       0.00000    2     ; C-N-C-H, prebuilt X-c3-na-X
 1852    1854    1857    1859         9         0.000       0.00000    2     ; C-N-C-H, prebuilt X-c3-na-X
 1852    1854    1857    1860         9         0.000       0.00000    2     ; C-N-C-H, prebuilt X-c3-na-X
 1853    1852    1854    1856         9       180.000       2.61500    2     ; N-C-N-C, prebuilt X-c2-na-X
 1853    1852    1854    1857         9       180.000       2.61500    2     ; N-C-N-C, prebuilt X-c2-na-X
 1853    1855    1856    1854         9       180.000      27.82360    2     ; N-C-C-N, prebuilt X-c2-c2-X
 1853    1855    1856    1867         9       180.000      27.82360    2     ; N-C-C-C, prebuilt X-c2-c2-X
 1853    1861    1862    1863         9       180.000      15.16700    2     ; N-C-C-C, prebuilt X-ca-ca-X
 1853    1861    1862    1892         9       180.000      15.16700    2     ; N-C-C-H, prebuilt X-ca-ca-X
 1853    1861    1866    1865         9       180.000      15.16700    2     ; N-C-C-C, prebuilt X-ca-ca-X
 1853    1861    1866    1894         9       180.000      15.16700    2     ; N-C-C-H, prebuilt X-ca-ca-X
 1854    1852    1853    1855         9       180.000       2.61500    2     ; N-C-N-C, prebuilt X-c2-na-X
 1854    1852    1853    1861         9       180.000       2.61500    2     ; N-C-N-C, prebuilt X-c2-na-X
 1854    1856    1855    1895         9       180.000      27.82360    2     ; N-C-C-H, prebuilt X-c2-c2-X
 1854    1856    1867    1868         9         0.000       0.00000    2     ; N-C-C-F, prebuilt X-c2-c3-X
 1854    1856    1867    1869         9         0.000       0.00000    2     ; N-C-C-F, prebuilt X-c2-c3-X
 1854    1856    1867    1870         9         0.000       0.00000    2     ; N-C-C-F, prebuilt X-c2-c3-X
 1855    1853    1861    1862         9       180.000       1.25520    2     ; C-N-C-C, prebuilt X-ca-na-X
 1855    1853    1861    1866         9       180.000       1.25520    2     ; C-N-C-C, prebuilt X-ca-na-X
 1855    1856    1854    1857         9       180.000       2.61500    2     ; C-C-N-C, prebuilt X-c2-na-X
 1855    1856    1867    1868         9         0.000       0.00000    2     ; C-C-C-F, prebuilt X-c2-c3-X
 1855    1856    1867    1869         9         0.000       0.00000    2     ; C-C-C-F, prebuilt X-c2-c3-X
 1855    1856    1867    1870         9         0.000       0.00000    2     ; C-C-C-F, prebuilt X-c2-c3-X
 1856    1854    1857    1858         9         0.000       0.00000    2     ; C-N-C-H, prebuilt X-c3-na-X
 1856    1854    1857    1859         9         0.000       0.00000    2     ; C-N-C-H, prebuilt X-c3-na-X
 1856    1854    1857    1860         9         0.000       0.00000    2     ; C-N-C-H, prebuilt X-c3-na-X
 1856    1855    1853    1861         9       180.000       2.61500    2     ; C-C-N-C, prebuilt X-c2-na-X
 1857    1854    1856    1867         9       180.000       2.61500    2     ; C-N-C-C, prebuilt X-c2-na-X
 1861    1853    1855    1895         9       180.000       2.61500    2     ; C-N-C-H, prebuilt X-c2-na-X
 1861    1862    1863    1864         9       180.000      15.16700    2     ; C-C-C-C, prebuilt X-ca-ca-X
 1861    1862    1863    1891         9       180.000      15.16700    2     ; C-C-C-H, prebuilt X-ca-ca-X
 1861    1866    1865    1864         9       180.000      15.16700    2     ; C-C-C-C, prebuilt X-ca-ca-X
 1861    1866    1865    1893         9       180.000      15.16700    2     ; C-C-C-H, prebuilt X-ca-ca-X
 1862    1861    1866    1865         9       180.000      15.16700    2     ; C-C-C-C, prebuilt X-ca-ca-X
 1862    1861    1866    1894         9       180.000      15.16700    2     ; C-C-C-H, prebuilt X-ca-ca-X
 1862    1863    1864    1865         9       180.000      15.16700    2     ; C-C-C-C, prebuilt X-ca-ca-X
 1863    1862    1861    1866         9       180.000      15.16700    2     ; C-C-C-C, prebuilt X-ca-ca-X
 1863    1864    1865    1866         9       180.000      15.16700    2     ; C-C-C-C, prebuilt X-ca-ca-X
 1863    1864    1865    1893         9       180.000      15.16700    2     ; C-C-C-H, prebuilt X-ca-ca-X
 1864    1863    1862    1892         9       180.000      15.16700    2     ; C-C-C-H, prebuilt X-ca-ca-X
 1864    1865    1866    1894         9       180.000      15.16700    2     ; C-C-C-H, prebuilt X-ca-ca-X
 1865    1864    1863    1891         9       180.000      15.16700    2     ; C-C-C-H, prebuilt X-ca-ca-X
 1866    1861    1862    1892         9       180.000      15.16700    2     ; C-C-C-H, prebuilt X-ca-ca-X
 1867    1856    1855    1895         9       180.000      27.82360    2     ; C-C-C-H, prebuilt X-c2-c2-X
 1871    1872    1807    1898         9       180.000       2.61500    2     ; C-C-N-C, prebuilt X-c2-na-X
 1871    1872    1873    1874         9         0.000       0.00000    2     ; C-C-C-F, prebuilt X-c2-c3-X
 1871    1872    1873    1875         9         0.000       0.00000    2     ; C-C-C-F, prebuilt X-c2-c3-X
 1871    1872    1873    1897         9         0.000       0.00000    2     ; C-C-C-F, prebuilt X-c2-c3-X
 1872    1807    1898    1899         9         0.000       0.00000    2     ; C-N-C-H, prebuilt X-c3-na-X
 1872    1807    1898    1900         9         0.000       0.00000    2     ; C-N-C-H, prebuilt X-c3-na-X
 1872    1807    1898    1901         9         0.000       0.00000    2     ; C-N-C-H, prebuilt X-c3-na-X
 1873    1872    1807    1898         9       180.000       2.61500    2     ; C-C-N-C, prebuilt X-c2-na-X
 1873    1872    1871    1876         9       180.000      27.82360    2     ; C-C-C-H, prebuilt X-c2-c2-X
 1877    1811    1812    1878         9       180.000      15.16700    2     ; H-C-C-H, prebuilt X-ca-ca-X
 1879    1815    1814    1880         9       180.000      15.16700    2     ; H-C-C-H, prebuilt X-ca-ca-X
 1882    1824    1825    1883         9       180.000      15.16700    2     ; H-C-C-H, prebuilt X-ca-ca-X
 1884    1829    1831    1886         9       180.000      15.16700    2     ; H-C-C-H, prebuilt X-ca-ca-X
 1887    1842    1843    1902         9       180.000      10.46000    2     ; O-C-N-H, prebuilt hn-n-c-o
 1887    1842    1843    1902         9         0.000       8.36800    1     ; O-C-N-H, prebuilt hn-n-c-o
 1888    1847    1849    1889         9       180.000      15.16700    2     ; H-C-C-H, prebuilt X-ca-ca-X
 1890    1848    1850    1896         9       180.000      15.16700    2     ; H-C-C-H, prebuilt X-ca-ca-X
 1891    1863    1862    1892         9       180.000      15.16700    2     ; H-C-C-H, prebuilt X-ca-ca-X
 1893    1865    1866    1894         9       180.000      15.16700    2     ; H-C-C-H, prebuilt X-ca-ca-X

[ pairs ] ; Yielded based on rotatable dihedrals
; atom_i  atom_j  functype
    1       4         1     ; N-C-N-C
    1      41         1     ; N-C-C-C
    1      42         1     ; N-C-C-C
    1      70         1     ; N-C-C-H
    1      68         1     ; N-C-C-F
    1      69         1     ; N-C-C-F
    1      92         1     ; N-C-C-F
    2      93         1     ; N-C-N-C
    2      41         1     ; N-C-C-C
    2      42         1     ; N-C-C-C
    2       6         1     ; N-C-C-C
    2      71         1     ; N-C-C-H
    2       8         1     ; N-C-C-C
    2      73         1     ; N-C-C-H
    2      67         1     ; N-C-C-C
    3      67         1     ; C-N-C-C
    3      94         1     ; C-N-C-H
    3      95         1     ; C-N-C-H
    3      96         1     ; C-N-C-H
    3       5         1     ; C-N-C-C
    3       9         1     ; C-N-C-C
    3      70         1     ; C-N-C-H
    3      43         1     ; C-C-C-C
    3      82         1     ; C-C-C-H
    3      44         1     ; C-C-C-C
    3      84         1     ; C-C-C-H
    4      40         1     ; C-N-C-C
    4      66         1     ; C-N-C-C
    4      70         1     ; C-N-C-H
    4       7         1     ; C-C-C-C
    4      72         1     ; C-C-C-H
    4      74         1     ; C-C-C-H
    5      65         1     ; C-C-N-C
    5       8         1     ; C-C-C-C
    5      73         1     ; C-C-C-H
    5      10         1     ; C-C-C-N
    6       9         1     ; C-C-C-C
    6      74         1     ; C-C-C-H
    6      11         1     ; C-C-N-C
    6      14         1     ; C-C-N-C
    7      71         1     ; C-C-C-H
    7      73         1     ; C-C-C-H
    7      12         1     ; C-N-C-C
    7      35         1     ; C-N-C-O
    7      13         1     ; C-N-C-C
    7      15         1     ; C-N-C-O
    8      72         1     ; C-C-C-H
    8      11         1     ; C-C-N-C
    8      14         1     ; C-C-N-C
    9      65         1     ; C-C-N-C
    9      71         1     ; C-C-C-H
    9      10         1     ; C-C-C-N
   10      72         1     ; N-C-C-H
   10      74         1     ; N-C-C-H
   10      16         1     ; N-C-C-C
   10      19         1     ; N-C-C-C
   11      15         1     ; C-N-C-O
   11      19         1     ; C-C-C-C
   11      17         1     ; C-C-C-C
   11      75         1     ; C-C-C-H
   12      15         1     ; C-C-C-O
   12      18         1     ; C-C-C-C
   12      77         1     ; C-C-C-H
   12      26         1     ; C-C-C-C
   13      35         1     ; C-C-C-O
   13      17         1     ; C-C-C-C
   13      75         1     ; C-C-C-H
   13      76         1     ; C-C-C-H
   14      35         1     ; C-N-C-O
   14      16         1     ; C-C-C-C
   14      18         1     ; C-C-C-C
   14      77         1     ; C-C-C-H
   15      19         1     ; O-C-C-C
   16      35         1     ; C-C-C-O
   16      19         1     ; C-C-C-C
   16      76         1     ; C-C-C-H
   16      20         1     ; C-C-C-C
   16      27         1     ; C-C-C-C
   16      31         1     ; C-C-C-C
   17      77         1     ; C-C-C-H
   17      21         1     ; C-C-C-C
   17      23         1     ; C-C-C-C
   17      28         1     ; C-C-C-F
   17      29         1     ; C-C-C-F
   17      30         1     ; C-C-C-F
   17      32         1     ; C-C-C-F
   17      33         1     ; C-C-C-F
   17      34         1     ; C-C-C-F
   18      75         1     ; C-C-C-H
   18      20         1     ; C-C-C-C
   18      27         1     ; C-C-C-C
   18      31         1     ; C-C-C-C
   19      26         1     ; C-C-C-C
   20      24         1     ; C-C-C-C
   20      36         1     ; C-C-C-C
   20      80         1     ; C-C-C-H
   20      28         1     ; C-C-C-F
   20      29         1     ; C-C-C-F
   20      30         1     ; C-C-C-F
   20      32         1     ; C-C-C-F
   20      33         1     ; C-C-C-F
   20      34         1     ; C-C-C-F
   21      25         1     ; C-C-C-C
   21      78         1     ; C-C-C-H
   21      27         1     ; C-C-C-C
   21      31         1     ; C-C-C-C
   21      38         1     ; C-C-C-C
   21      37         1     ; C-C-C-N
   21      81         1     ; C-C-C-O
   22      23         1     ; C-C-C-C
   22      26         1     ; C-C-C-C
   22      80         1     ; C-C-C-H
   22      39         1     ; C-C-C-O
   22     154         1     ; C-C-N-C
   23      79         1     ; C-C-C-H
   23      27         1     ; C-C-C-C
   23      31         1     ; C-C-C-C
   23      38         1     ; C-C-C-C
   24      79         1     ; C-C-C-H
   24      81         1     ; C-C-C-O
   24      78         1     ; C-C-C-H
   24     154         1     ; C-C-N-C
   25      26         1     ; C-C-C-C
   25      36         1     ; C-C-C-C
   25      37         1     ; C-C-C-N
   25      39         1     ; C-C-C-O
   26      75         1     ; C-C-C-H
   26      76         1     ; C-C-C-H
   26      79         1     ; C-C-C-H
   26      78         1     ; C-C-C-H
   27      32         1     ; C-C-C-F
   27      33         1     ; C-C-C-F
   27      34         1     ; C-C-C-F
   28      31         1     ; F-C-C-C
   29      31         1     ; F-C-C-C
   30      31         1     ; F-C-C-C
   36      79         1     ; C-C-C-H
   36      39         1     ; C-N-C-O
   36     153         1     ; C-N-C-C
   36     155         1     ; C-N-C-C
   37     152         1     ; N-C-C-C
   37     181         1     ; N-C-C-H
   37     156         1     ; N-C-C-C
   37     183         1     ; N-C-C-H
   38      80         1     ; C-C-C-H
   38      81         1     ; C-N-C-O
   38     153         1     ; C-N-C-C
   38     155         1     ; C-N-C-C
   39     154         1     ; O-C-N-C
   40      66         1     ; C-C-N-C
   40      93         1     ; C-C-N-C
   40      65         1     ; C-C-N-C
   40      45         1     ; C-C-C-C
   40      83         1     ; C-C-C-H
   40      91         1     ; C-C-C-H
   41      44         1     ; C-C-C-C
   41      84         1     ; C-C-C-H
   41      46         1     ; C-C-C-C
   42      43         1     ; C-C-C-C
   42      82         1     ; C-C-C-H
   42      46         1     ; C-C-C-C
   43      91         1     ; C-C-C-H
   43      47         1     ; C-C-C-N
   43      48         1     ; C-C-C-N
   44      83         1     ; C-C-C-H
   44      47         1     ; C-C-C-N
   44      48         1     ; C-C-C-N
   45      82         1     ; C-C-C-H
   45      84         1     ; C-C-C-H
   45      49         1     ; C-C-N-C
   45      55         1     ; C-C-N-C
   45      50         1     ; C-C-N-C
   45      51         1     ; C-C-N-C
   46      83         1     ; C-C-C-H
   46      91         1     ; C-C-C-H
   46      90         1     ; C-N-C-H
   46      56         1     ; C-N-C-C
   46      60         1     ; C-N-C-C
   46      61         1     ; C-N-C-C
   46      52         1     ; C-N-C-H
   46      53         1     ; C-N-C-H
   46      54         1     ; C-N-C-H
   47      51         1     ; N-C-N-C
   47      61         1     ; N-C-C-C
   47      57         1     ; N-C-C-C
   47      87         1     ; N-C-C-H
   47      59         1     ; N-C-C-C
   47      89         1     ; N-C-C-H
   48      55         1     ; N-C-N-C
   48      90         1     ; N-C-C-H
   48      62         1     ; N-C-C-F
   48      63         1     ; N-C-C-F
   48      64         1     ; N-C-C-F
   49      56         1     ; C-N-C-C
   49      60         1     ; C-N-C-C
   49      51         1     ; C-C-N-C
   49      62         1     ; C-C-C-F
   49      63         1     ; C-C-C-F
   49      64         1     ; C-C-C-F
   50      52         1     ; C-N-C-H
   50      53         1     ; C-N-C-H
   50      54         1     ; C-N-C-H
   50      55         1     ; C-C-N-C
   51      61         1     ; C-N-C-C
   55      90         1     ; C-N-C-H
   55      58         1     ; C-C-C-C
   55      85         1     ; C-C-C-H
   55      88         1     ; C-C-C-H
   56      59         1     ; C-C-C-C
   56      89         1     ; C-C-C-H
   56      86         1     ; C-C-C-H
   57      60         1     ; C-C-C-C
   57      88         1     ; C-C-C-H
   58      87         1     ; C-C-C-H
   58      89         1     ; C-C-C-H
   59      85         1     ; C-C-C-H
   60      87         1     ; C-C-C-H
   60      86         1     ; C-C-C-H
   61      90         1     ; C-C-C-H
   65      93         1     ; C-C-N-C
   65      68         1     ; C-C-C-F
   65      69         1     ; C-C-C-F
   65      92         1     ; C-C-C-F
   66      94         1     ; C-N-C-H
   66      95         1     ; C-N-C-H
   66      96         1     ; C-N-C-H
   67      93         1     ; C-C-N-C
   67      70         1     ; C-C-C-H
   71      72         1     ; H-C-C-H
   73      74         1     ; H-C-C-H
   76      77         1     ; H-C-C-H
   78      80         1     ; H-C-C-H
   81     154         1     ; O-C-N-C
   82      83         1     ; H-C-C-H
   84      91         1     ; H-C-C-H
   85      87         1     ; H-C-C-H
   85      86         1     ; H-C-C-H
   86      88         1     ; H-C-C-H
   88      89         1     ; H-C-C-H
   97     100         1     ; N-C-N-C
   97     137         1     ; N-C-C-C
   97     138         1     ; N-C-C-C
   97     166         1     ; N-C-C-H
   97     164         1     ; N-C-C-F
   97     165         1     ; N-C-C-F
   97     187         1     ; N-C-C-F
   98     188         1     ; N-C-N-C
   98     137         1     ; N-C-C-C
   98     138         1     ; N-C-C-C
   98     102         1     ; N-C-C-C
   98     167         1     ; N-C-C-H
   98     104         1     ; N-C-C-C
   98     169         1     ; N-C-C-H
   98     163         1     ; N-C-C-C
   99     163         1     ; C-N-C-C
   99     189         1     ; C-N-C-H
   99     190         1     ; C-N-C-H
   99     191         1     ; C-N-C-H
   99     101         1     ; C-N-C-C
   99     105         1     ; C-N-C-C
   99     166         1     ; C-N-C-H
   99     139         1     ; C-C-C-C
   99     178         1     ; C-C-C-H
   99     140         1     ; C-C-C-C
   99     180         1     ; C-C-C-H
  100     136         1     ; C-N-C-C
  100     162         1     ; C-N-C-C
  100     166         1     ; C-N-C-H
  100     103         1     ; C-C-C-C
  100     168         1     ; C-C-C-H
  100     170         1     ; C-C-C-H
  101     161         1     ; C-C-N-C
  101     104         1     ; C-C-C-C
  101     169         1     ; C-C-C-H
  101     106         1     ; C-C-C-N
  102     105         1     ; C-C-C-C
  102     170         1     ; C-C-C-H
  102     107         1     ; C-C-N-C
  102     110         1     ; C-C-N-C
  103     167         1     ; C-C-C-H
  103     169         1     ; C-C-C-H
  103     108         1     ; C-N-C-C
  103     131         1     ; C-N-C-O
  103     109         1     ; C-N-C-C
  103     111         1     ; C-N-C-O
  104     168         1     ; C-C-C-H
  104     107         1     ; C-C-N-C
  104     110         1     ; C-C-N-C
  105     161         1     ; C-C-N-C
  105     167         1     ; C-C-C-H
  105     106         1     ; C-C-C-N
  106     168         1     ; N-C-C-H
  106     170         1     ; N-C-C-H
  106     112         1     ; N-C-C-C
  106     115         1     ; N-C-C-C
  107     111         1     ; C-N-C-O
  107     115         1     ; C-C-C-C
  107     113         1     ; C-C-C-C
  107     171         1     ; C-C-C-H
  108     111         1     ; C-C-C-O
  108     114         1     ; C-C-C-C
  108     173         1     ; C-C-C-H
  108     122         1     ; C-C-C-C
  109     131         1     ; C-C-C-O
  109     113         1     ; C-C-C-C
  109     171         1     ; C-C-C-H
  109     172         1     ; C-C-C-H
  110     131         1     ; C-N-C-O
  110     112         1     ; C-C-C-C
  110     114         1     ; C-C-C-C
  110     173         1     ; C-C-C-H
  111     115         1     ; O-C-C-C
  112     131         1     ; C-C-C-O
  112     115         1     ; C-C-C-C
  112     172         1     ; C-C-C-H
  112     116         1     ; C-C-C-C
  112     123         1     ; C-C-C-C
  112     127         1     ; C-C-C-C
  113     173         1     ; C-C-C-H
  113     117         1     ; C-C-C-C
  113     119         1     ; C-C-C-C
  113     124         1     ; C-C-C-F
  113     125         1     ; C-C-C-F
  113     126         1     ; C-C-C-F
  113     128         1     ; C-C-C-F
  113     129         1     ; C-C-C-F
  113     130         1     ; C-C-C-F
  114     171         1     ; C-C-C-H
  114     116         1     ; C-C-C-C
  114     123         1     ; C-C-C-C
  114     127         1     ; C-C-C-C
  115     122         1     ; C-C-C-C
  116     120         1     ; C-C-C-C
  116     132         1     ; C-C-C-C
  116     176         1     ; C-C-C-H
  116     124         1     ; C-C-C-F
  116     125         1     ; C-C-C-F
  116     126         1     ; C-C-C-F
  116     128         1     ; C-C-C-F
  116     129         1     ; C-C-C-F
  116     130         1     ; C-C-C-F
  117     121         1     ; C-C-C-C
  117     174         1     ; C-C-C-H
  117     123         1     ; C-C-C-C
  117     127         1     ; C-C-C-C
  117     134         1     ; C-C-C-C
  117     133         1     ; C-C-C-N
  117     177         1     ; C-C-C-O
  118     119         1     ; C-C-C-C
  118     122         1     ; C-C-C-C
  118     176         1     ; C-C-C-H
  118     135         1     ; C-C-C-O
  118     249         1     ; C-C-N-C
  119     175         1     ; C-C-C-H
  119     123         1     ; C-C-C-C
  119     127         1     ; C-C-C-C
  119     134         1     ; C-C-C-C
  120     175         1     ; C-C-C-H
  120     177         1     ; C-C-C-O
  120     174         1     ; C-C-C-H
  120     249         1     ; C-C-N-C
  121     122         1     ; C-C-C-C
  121     132         1     ; C-C-C-C
  121     133         1     ; C-C-C-N
  121     135         1     ; C-C-C-O
  122     171         1     ; C-C-C-H
  122     172         1     ; C-C-C-H
  122     175         1     ; C-C-C-H
  122     174         1     ; C-C-C-H
  123     128         1     ; C-C-C-F
  123     129         1     ; C-C-C-F
  123     130         1     ; C-C-C-F
  124     127         1     ; F-C-C-C
  125     127         1     ; F-C-C-C
  126     127         1     ; F-C-C-C
  132     175         1     ; C-C-C-H
  132     135         1     ; C-N-C-O
  132     248         1     ; C-N-C-C
  132     250         1     ; C-N-C-C
  133     247         1     ; N-C-C-C
  133     276         1     ; N-C-C-H
  133     251         1     ; N-C-C-C
  133     278         1     ; N-C-C-H
  134     176         1     ; C-C-C-H
  134     177         1     ; C-N-C-O
  134     248         1     ; C-N-C-C
  134     250         1     ; C-N-C-C
  135     249         1     ; O-C-N-C
  136     162         1     ; C-C-N-C
  136     188         1     ; C-C-N-C
  136     161         1     ; C-C-N-C
  136     141         1     ; C-C-C-C
  136     179         1     ; C-C-C-H
  136     186         1     ; C-C-C-H
  137     140         1     ; C-C-C-C
  137     180         1     ; C-C-C-H
  137     142         1     ; C-C-C-C
  138     139         1     ; C-C-C-C
  138     178         1     ; C-C-C-H
  138     142         1     ; C-C-C-C
  139     186         1     ; C-C-C-H
  139     143         1     ; C-C-C-N
  139     144         1     ; C-C-C-N
  140     179         1     ; C-C-C-H
  140     143         1     ; C-C-C-N
  140     144         1     ; C-C-C-N
  141     178         1     ; C-C-C-H
  141     180         1     ; C-C-C-H
  141     145         1     ; C-C-N-C
  141     151         1     ; C-C-N-C
  141     146         1     ; C-C-N-C
  141     147         1     ; C-C-N-C
  142     179         1     ; C-C-C-H
  142     186         1     ; C-C-C-H
  142     185         1     ; C-N-C-H
  142     152         1     ; C-N-C-C
  142     156         1     ; C-N-C-C
  142     157         1     ; C-N-C-C
  142     148         1     ; C-N-C-H
  142     149         1     ; C-N-C-H
  142     150         1     ; C-N-C-H
  143     147         1     ; N-C-N-C
  143     157         1     ; N-C-C-C
  143     153         1     ; N-C-C-C
  143     182         1     ; N-C-C-H
  143     155         1     ; N-C-C-C
  143     184         1     ; N-C-C-H
  144     151         1     ; N-C-N-C
  144     185         1     ; N-C-C-H
  144     158         1     ; N-C-C-F
  144     159         1     ; N-C-C-F
  144     160         1     ; N-C-C-F
  145     152         1     ; C-N-C-C
  145     156         1     ; C-N-C-C
  145     147         1     ; C-C-N-C
  145     158         1     ; C-C-C-F
  145     159         1     ; C-C-C-F
  145     160         1     ; C-C-C-F
  146     148         1     ; C-N-C-H
  146     149         1     ; C-N-C-H
  146     150         1     ; C-N-C-H
  146     151         1     ; C-C-N-C
  147     157         1     ; C-N-C-C
  151     185         1     ; C-N-C-H
  151     154         1     ; C-C-C-C
  151     181         1     ; C-C-C-H
  151     183         1     ; C-C-C-H
  152     155         1     ; C-C-C-C
  152     184         1     ; C-C-C-H
  153     156         1     ; C-C-C-C
  153     183         1     ; C-C-C-H
  154     182         1     ; C-C-C-H
  154     184         1     ; C-C-C-H
  155     181         1     ; C-C-C-H
  156     182         1     ; C-C-C-H
  157     185         1     ; C-C-C-H
  161     188         1     ; C-C-N-C
  161     164         1     ; C-C-C-F
  161     165         1     ; C-C-C-F
  161     187         1     ; C-C-C-F
  162     189         1     ; C-N-C-H
  162     190         1     ; C-N-C-H
  162     191         1     ; C-N-C-H
  163     188         1     ; C-C-N-C
  163     166         1     ; C-C-C-H
  167     168         1     ; H-C-C-H
  169     170         1     ; H-C-C-H
  172     173         1     ; H-C-C-H
  174     176         1     ; H-C-C-H
  177     249         1     ; O-C-N-C
  178     179         1     ; H-C-C-H
  180     186         1     ; H-C-C-H
  181     182         1     ; H-C-C-H
  183     184         1     ; H-C-C-H
  192     195         1     ; N-C-N-C
  192     232         1     ; N-C-C-C
  192     233         1     ; N-C-C-C
  192     261         1     ; N-C-C-H
  192     259         1     ; N-C-C-F
  192     260         1     ; N-C-C-F
  192     282         1     ; N-C-C-F
  193     283         1     ; N-C-N-C
  193     232         1     ; N-C-C-C
  193     233         1     ; N-C-C-C
  193     197         1     ; N-C-C-C
  193     262         1     ; N-C-C-H
  193     199         1     ; N-C-C-C
  193     264         1     ; N-C-C-H
  193     258         1     ; N-C-C-C
  194     258         1     ; C-N-C-C
  194     284         1     ; C-N-C-H
  194     285         1     ; C-N-C-H
  194     286         1     ; C-N-C-H
  194     196         1     ; C-N-C-C
  194     200         1     ; C-N-C-C
  194     261         1     ; C-N-C-H
  194     234         1     ; C-C-C-C
  194     273         1     ; C-C-C-H
  194     235         1     ; C-C-C-C
  194     275         1     ; C-C-C-H
  195     231         1     ; C-N-C-C
  195     257         1     ; C-N-C-C
  195     261         1     ; C-N-C-H
  195     198         1     ; C-C-C-C
  195     263         1     ; C-C-C-H
  195     265         1     ; C-C-C-H
  196     256         1     ; C-C-N-C
  196     199         1     ; C-C-C-C
  196     264         1     ; C-C-C-H
  196     201         1     ; C-C-C-N
  197     200         1     ; C-C-C-C
  197     265         1     ; C-C-C-H
  197     202         1     ; C-C-N-C
  197     205         1     ; C-C-N-C
  198     262         1     ; C-C-C-H
  198     264         1     ; C-C-C-H
  198     203         1     ; C-N-C-C
  198     226         1     ; C-N-C-O
  198     204         1     ; C-N-C-C
  198     206         1     ; C-N-C-O
  199     263         1     ; C-C-C-H
  199     202         1     ; C-C-N-C
  199     205         1     ; C-C-N-C
  200     256         1     ; C-C-N-C
  200     262         1     ; C-C-C-H
  200     201         1     ; C-C-C-N
  201     263         1     ; N-C-C-H
  201     265         1     ; N-C-C-H
  201     207         1     ; N-C-C-C
  201     210         1     ; N-C-C-C
  202     206         1     ; C-N-C-O
  202     210         1     ; C-C-C-C
  202     208         1     ; C-C-C-C
  202     266         1     ; C-C-C-H
  203     206         1     ; C-C-C-O
  203     209         1     ; C-C-C-C
  203     268         1     ; C-C-C-H
  203     217         1     ; C-C-C-C
  204     226         1     ; C-C-C-O
  204     208         1     ; C-C-C-C
  204     266         1     ; C-C-C-H
  204     267         1     ; C-C-C-H
  205     226         1     ; C-N-C-O
  205     207         1     ; C-C-C-C
  205     209         1     ; C-C-C-C
  205     268         1     ; C-C-C-H
  206     210         1     ; O-C-C-C
  207     226         1     ; C-C-C-O
  207     210         1     ; C-C-C-C
  207     267         1     ; C-C-C-H
  207     211         1     ; C-C-C-C
  207     218         1     ; C-C-C-C
  207     222         1     ; C-C-C-C
  208     268         1     ; C-C-C-H
  208     212         1     ; C-C-C-C
  208     214         1     ; C-C-C-C
  208     219         1     ; C-C-C-F
  208     220         1     ; C-C-C-F
  208     221         1     ; C-C-C-F
  208     223         1     ; C-C-C-F
  208     224         1     ; C-C-C-F
  208     225         1     ; C-C-C-F
  209     266         1     ; C-C-C-H
  209     211         1     ; C-C-C-C
  209     218         1     ; C-C-C-C
  209     222         1     ; C-C-C-C
  210     217         1     ; C-C-C-C
  211     215         1     ; C-C-C-C
  211     227         1     ; C-C-C-C
  211     271         1     ; C-C-C-H
  211     219         1     ; C-C-C-F
  211     220         1     ; C-C-C-F
  211     221         1     ; C-C-C-F
  211     223         1     ; C-C-C-F
  211     224         1     ; C-C-C-F
  211     225         1     ; C-C-C-F
  212     216         1     ; C-C-C-C
  212     269         1     ; C-C-C-H
  212     218         1     ; C-C-C-C
  212     222         1     ; C-C-C-C
  212     229         1     ; C-C-C-C
  212     228         1     ; C-C-C-N
  212     272         1     ; C-C-C-O
  213     214         1     ; C-C-C-C
  213     217         1     ; C-C-C-C
  213     271         1     ; C-C-C-H
  213     230         1     ; C-C-C-O
  213     344         1     ; C-C-N-C
  214     270         1     ; C-C-C-H
  214     218         1     ; C-C-C-C
  214     222         1     ; C-C-C-C
  214     229         1     ; C-C-C-C
  215     270         1     ; C-C-C-H
  215     272         1     ; C-C-C-O
  215     269         1     ; C-C-C-H
  215     344         1     ; C-C-N-C
  216     217         1     ; C-C-C-C
  216     227         1     ; C-C-C-C
  216     228         1     ; C-C-C-N
  216     230         1     ; C-C-C-O
  217     266         1     ; C-C-C-H
  217     267         1     ; C-C-C-H
  217     270         1     ; C-C-C-H
  217     269         1     ; C-C-C-H
  218     223         1     ; C-C-C-F
  218     224         1     ; C-C-C-F
  218     225         1     ; C-C-C-F
  219     222         1     ; F-C-C-C
  220     222         1     ; F-C-C-C
  221     222         1     ; F-C-C-C
  227     270         1     ; C-C-C-H
  227     230         1     ; C-N-C-O
  227     343         1     ; C-N-C-C
  227     345         1     ; C-N-C-C
  228     342         1     ; N-C-C-C
  228     371         1     ; N-C-C-H
  228     346         1     ; N-C-C-C
  228     373         1     ; N-C-C-H
  229     271         1     ; C-C-C-H
  229     272         1     ; C-N-C-O
  229     343         1     ; C-N-C-C
  229     345         1     ; C-N-C-C
  230     344         1     ; O-C-N-C
  231     257         1     ; C-C-N-C
  231     283         1     ; C-C-N-C
  231     256         1     ; C-C-N-C
  231     236         1     ; C-C-C-C
  231     274         1     ; C-C-C-H
  231     281         1     ; C-C-C-H
  232     235         1     ; C-C-C-C
  232     275         1     ; C-C-C-H
  232     237         1     ; C-C-C-C
  233     234         1     ; C-C-C-C
  233     273         1     ; C-C-C-H
  233     237         1     ; C-C-C-C
  234     281         1     ; C-C-C-H
  234     238         1     ; C-C-C-N
  234     239         1     ; C-C-C-N
  235     274         1     ; C-C-C-H
  235     238         1     ; C-C-C-N
  235     239         1     ; C-C-C-N
  236     273         1     ; C-C-C-H
  236     275         1     ; C-C-C-H
  236     240         1     ; C-C-N-C
  236     246         1     ; C-C-N-C
  236     241         1     ; C-C-N-C
  236     242         1     ; C-C-N-C
  237     274         1     ; C-C-C-H
  237     281         1     ; C-C-C-H
  237     280         1     ; C-N-C-H
  237     247         1     ; C-N-C-C
  237     251         1     ; C-N-C-C
  237     252         1     ; C-N-C-C
  237     243         1     ; C-N-C-H
  237     244         1     ; C-N-C-H
  237     245         1     ; C-N-C-H
  238     242         1     ; N-C-N-C
  238     252         1     ; N-C-C-C
  238     248         1     ; N-C-C-C
  238     277         1     ; N-C-C-H
  238     250         1     ; N-C-C-C
  238     279         1     ; N-C-C-H
  239     246         1     ; N-C-N-C
  239     280         1     ; N-C-C-H
  239     253         1     ; N-C-C-F
  239     254         1     ; N-C-C-F
  239     255         1     ; N-C-C-F
  240     247         1     ; C-N-C-C
  240     251         1     ; C-N-C-C
  240     242         1     ; C-C-N-C
  240     253         1     ; C-C-C-F
  240     254         1     ; C-C-C-F
  240     255         1     ; C-C-C-F
  241     243         1     ; C-N-C-H
  241     244         1     ; C-N-C-H
  241     245         1     ; C-N-C-H
  241     246         1     ; C-C-N-C
  242     252         1     ; C-N-C-C
  246     280         1     ; C-N-C-H
  246     249         1     ; C-C-C-C
  246     276         1     ; C-C-C-H
  246     278         1     ; C-C-C-H
  247     250         1     ; C-C-C-C
  247     279         1     ; C-C-C-H
  248     251         1     ; C-C-C-C
  248     278         1     ; C-C-C-H
  249     277         1     ; C-C-C-H
  249     279         1     ; C-C-C-H
  250     276         1     ; C-C-C-H
  251     277         1     ; C-C-C-H
  252     280         1     ; C-C-C-H
  256     283         1     ; C-C-N-C
  256     259         1     ; C-C-C-F
  256     260         1     ; C-C-C-F
  256     282         1     ; C-C-C-F
  257     284         1     ; C-N-C-H
  257     285         1     ; C-N-C-H
  257     286         1     ; C-N-C-H
  258     283         1     ; C-C-N-C
  258     261         1     ; C-C-C-H
  262     263         1     ; H-C-C-H
  264     265         1     ; H-C-C-H
  267     268         1     ; H-C-C-H
  269     271         1     ; H-C-C-H
  272     344         1     ; O-C-N-C
  273     274         1     ; H-C-C-H
  275     281         1     ; H-C-C-H
  276     277         1     ; H-C-C-H
  278     279         1     ; H-C-C-H
  287     290         1     ; N-C-N-C
  287     327         1     ; N-C-C-C
  287     328         1     ; N-C-C-C
  287     356         1     ; N-C-C-H
  287     354         1     ; N-C-C-F
  287     355         1     ; N-C-C-F
  287     377         1     ; N-C-C-F
  288     378         1     ; N-C-N-C
  288     327         1     ; N-C-C-C
  288     328         1     ; N-C-C-C
  288     292         1     ; N-C-C-C
  288     357         1     ; N-C-C-H
  288     294         1     ; N-C-C-C
  288     359         1     ; N-C-C-H
  288     353         1     ; N-C-C-C
  289     353         1     ; C-N-C-C
  289     379         1     ; C-N-C-H
  289     380         1     ; C-N-C-H
  289     381         1     ; C-N-C-H
  289     291         1     ; C-N-C-C
  289     295         1     ; C-N-C-C
  289     356         1     ; C-N-C-H
  289     329         1     ; C-C-C-C
  289     368         1     ; C-C-C-H
  289     330         1     ; C-C-C-C
  289     370         1     ; C-C-C-H
  290     326         1     ; C-N-C-C
  290     352         1     ; C-N-C-C
  290     356         1     ; C-N-C-H
  290     293         1     ; C-C-C-C
  290     358         1     ; C-C-C-H
  290     360         1     ; C-C-C-H
  291     351         1     ; C-C-N-C
  291     294         1     ; C-C-C-C
  291     359         1     ; C-C-C-H
  291     296         1     ; C-C-C-N
  292     295         1     ; C-C-C-C
  292     360         1     ; C-C-C-H
  292     297         1     ; C-C-N-C
  292     300         1     ; C-C-N-C
  293     357         1     ; C-C-C-H
  293     359         1     ; C-C-C-H
  293     298         1     ; C-N-C-C
  293     321         1     ; C-N-C-O
  293     299         1     ; C-N-C-C
  293     301         1     ; C-N-C-O
  294     358         1     ; C-C-C-H
  294     297         1     ; C-C-N-C
  294     300         1     ; C-C-N-C
  295     351         1     ; C-C-N-C
  295     357         1     ; C-C-C-H
  295     296         1     ; C-C-C-N
  296     358         1     ; N-C-C-H
  296     360         1     ; N-C-C-H
  296     302         1     ; N-C-C-C
  296     305         1     ; N-C-C-C
  297     301         1     ; C-N-C-O
  297     305         1     ; C-C-C-C
  297     303         1     ; C-C-C-C
  297     361         1     ; C-C-C-H
  298     301         1     ; C-C-C-O
  298     304         1     ; C-C-C-C
  298     363         1     ; C-C-C-H
  298     312         1     ; C-C-C-C
  299     321         1     ; C-C-C-O
  299     303         1     ; C-C-C-C
  299     361         1     ; C-C-C-H
  299     362         1     ; C-C-C-H
  300     321         1     ; C-N-C-O
  300     302         1     ; C-C-C-C
  300     304         1     ; C-C-C-C
  300     363         1     ; C-C-C-H
  301     305         1     ; O-C-C-C
  302     321         1     ; C-C-C-O
  302     305         1     ; C-C-C-C
  302     362         1     ; C-C-C-H
  302     306         1     ; C-C-C-C
  302     313         1     ; C-C-C-C
  302     317         1     ; C-C-C-C
  303     363         1     ; C-C-C-H
  303     307         1     ; C-C-C-C
  303     309         1     ; C-C-C-C
  303     314         1     ; C-C-C-F
  303     315         1     ; C-C-C-F
  303     316         1     ; C-C-C-F
  303     318         1     ; C-C-C-F
  303     319         1     ; C-C-C-F
  303     320         1     ; C-C-C-F
  304     361         1     ; C-C-C-H
  304     306         1     ; C-C-C-C
  304     313         1     ; C-C-C-C
  304     317         1     ; C-C-C-C
  305     312         1     ; C-C-C-C
  306     310         1     ; C-C-C-C
  306     322         1     ; C-C-C-C
  306     366         1     ; C-C-C-H
  306     314         1     ; C-C-C-F
  306     315         1     ; C-C-C-F
  306     316         1     ; C-C-C-F
  306     318         1     ; C-C-C-F
  306     319         1     ; C-C-C-F
  306     320         1     ; C-C-C-F
  307     311         1     ; C-C-C-C
  307     364         1     ; C-C-C-H
  307     313         1     ; C-C-C-C
  307     317         1     ; C-C-C-C
  307     324         1     ; C-C-C-C
  307     323         1     ; C-C-C-N
  307     367         1     ; C-C-C-O
  308     309         1     ; C-C-C-C
  308     312         1     ; C-C-C-C
  308     366         1     ; C-C-C-H
  308     325         1     ; C-C-C-O
  308     439         1     ; C-C-N-C
  309     365         1     ; C-C-C-H
  309     313         1     ; C-C-C-C
  309     317         1     ; C-C-C-C
  309     324         1     ; C-C-C-C
  310     365         1     ; C-C-C-H
  310     367         1     ; C-C-C-O
  310     364         1     ; C-C-C-H
  310     439         1     ; C-C-N-C
  311     312         1     ; C-C-C-C
  311     322         1     ; C-C-C-C
  311     323         1     ; C-C-C-N
  311     325         1     ; C-C-C-O
  312     361         1     ; C-C-C-H
  312     362         1     ; C-C-C-H
  312     365         1     ; C-C-C-H
  312     364         1     ; C-C-C-H
  313     318         1     ; C-C-C-F
  313     319         1     ; C-C-C-F
  313     320         1     ; C-C-C-F
  314     317         1     ; F-C-C-C
  315     317         1     ; F-C-C-C
  316     317         1     ; F-C-C-C
  322     365         1     ; C-C-C-H
  322     325         1     ; C-N-C-O
  322     438         1     ; C-N-C-C
  322     440         1     ; C-N-C-C
  323     437         1     ; N-C-C-C
  323     466         1     ; N-C-C-H
  323     441         1     ; N-C-C-C
  323     468         1     ; N-C-C-H
  324     366         1     ; C-C-C-H
  324     367         1     ; C-N-C-O
  324     438         1     ; C-N-C-C
  324     440         1     ; C-N-C-C
  325     439         1     ; O-C-N-C
  326     352         1     ; C-C-N-C
  326     378         1     ; C-C-N-C
  326     351         1     ; C-C-N-C
  326     331         1     ; C-C-C-C
  326     369         1     ; C-C-C-H
  326     376         1     ; C-C-C-H
  327     330         1     ; C-C-C-C
  327     370         1     ; C-C-C-H
  327     332         1     ; C-C-C-C
  328     329         1     ; C-C-C-C
  328     368         1     ; C-C-C-H
  328     332         1     ; C-C-C-C
  329     376         1     ; C-C-C-H
  329     333         1     ; C-C-C-N
  329     334         1     ; C-C-C-N
  330     369         1     ; C-C-C-H
  330     333         1     ; C-C-C-N
  330     334         1     ; C-C-C-N
  331     368         1     ; C-C-C-H
  331     370         1     ; C-C-C-H
  331     335         1     ; C-C-N-C
  331     341         1     ; C-C-N-C
  331     336         1     ; C-C-N-C
  331     337         1     ; C-C-N-C
  332     369         1     ; C-C-C-H
  332     376         1     ; C-C-C-H
  332     375         1     ; C-N-C-H
  332     342         1     ; C-N-C-C
  332     346         1     ; C-N-C-C
  332     347         1     ; C-N-C-C
  332     338         1     ; C-N-C-H
  332     339         1     ; C-N-C-H
  332     340         1     ; C-N-C-H
  333     337         1     ; N-C-N-C
  333     347         1     ; N-C-C-C
  333     343         1     ; N-C-C-C
  333     372         1     ; N-C-C-H
  333     345         1     ; N-C-C-C
  333     374         1     ; N-C-C-H
  334     341         1     ; N-C-N-C
  334     375         1     ; N-C-C-H
  334     348         1     ; N-C-C-F
  334     349         1     ; N-C-C-F
  334     350         1     ; N-C-C-F
  335     342         1     ; C-N-C-C
  335     346         1     ; C-N-C-C
  335     337         1     ; C-C-N-C
  335     348         1     ; C-C-C-F
  335     349         1     ; C-C-C-F
  335     350         1     ; C-C-C-F
  336     338         1     ; C-N-C-H
  336     339         1     ; C-N-C-H
  336     340         1     ; C-N-C-H
  336     341         1     ; C-C-N-C
  337     347         1     ; C-N-C-C
  341     375         1     ; C-N-C-H
  341     344         1     ; C-C-C-C
  341     371         1     ; C-C-C-H
  341     373         1     ; C-C-C-H
  342     345         1     ; C-C-C-C
  342     374         1     ; C-C-C-H
  343     346         1     ; C-C-C-C
  343     373         1     ; C-C-C-H
  344     372         1     ; C-C-C-H
  344     374         1     ; C-C-C-H
  345     371         1     ; C-C-C-H
  346     372         1     ; C-C-C-H
  347     375         1     ; C-C-C-H
  351     378         1     ; C-C-N-C
  351     354         1     ; C-C-C-F
  351     355         1     ; C-C-C-F
  351     377         1     ; C-C-C-F
  352     379         1     ; C-N-C-H
  352     380         1     ; C-N-C-H
  352     381         1     ; C-N-C-H
  353     378         1     ; C-C-N-C
  353     356         1     ; C-C-C-H
  357     358         1     ; H-C-C-H
  359     360         1     ; H-C-C-H
  362     363         1     ; H-C-C-H
  364     366         1     ; H-C-C-H
  367     439         1     ; O-C-N-C
  368     369         1     ; H-C-C-H
  370     376         1     ; H-C-C-H
  371     372         1     ; H-C-C-H
  373     374         1     ; H-C-C-H
  382     385         1     ; N-C-N-C
  382     422         1     ; N-C-C-C
  382     423         1     ; N-C-C-C
  382     451         1     ; N-C-C-H
  382     449         1     ; N-C-C-F
  382     450         1     ; N-C-C-F
  382     472         1     ; N-C-C-F
  383     473         1     ; N-C-N-C
  383     422         1     ; N-C-C-C
  383     423         1     ; N-C-C-C
  383     387         1     ; N-C-C-C
  383     452         1     ; N-C-C-H
  383     389         1     ; N-C-C-C
  383     454         1     ; N-C-C-H
  383     448         1     ; N-C-C-C
  384     448         1     ; C-N-C-C
  384     474         1     ; C-N-C-H
  384     475         1     ; C-N-C-H
  384     476         1     ; C-N-C-H
  384     386         1     ; C-N-C-C
  384     390         1     ; C-N-C-C
  384     451         1     ; C-N-C-H
  384     424         1     ; C-C-C-C
  384     463         1     ; C-C-C-H
  384     425         1     ; C-C-C-C
  384     465         1     ; C-C-C-H
  385     421         1     ; C-N-C-C
  385     447         1     ; C-N-C-C
  385     451         1     ; C-N-C-H
  385     388         1     ; C-C-C-C
  385     453         1     ; C-C-C-H
  385     455         1     ; C-C-C-H
  386     446         1     ; C-C-N-C
  386     389         1     ; C-C-C-C
  386     454         1     ; C-C-C-H
  386     391         1     ; C-C-C-N
  387     390         1     ; C-C-C-C
  387     455         1     ; C-C-C-H
  387     392         1     ; C-C-N-C
  387     395         1     ; C-C-N-C
  388     452         1     ; C-C-C-H
  388     454         1     ; C-C-C-H
  388     393         1     ; C-N-C-C
  388     416         1     ; C-N-C-O
  388     394         1     ; C-N-C-C
  388     396         1     ; C-N-C-O
  389     453         1     ; C-C-C-H
  389     392         1     ; C-C-N-C
  389     395         1     ; C-C-N-C
  390     446         1     ; C-C-N-C
  390     452         1     ; C-C-C-H
  390     391         1     ; C-C-C-N
  391     453         1     ; N-C-C-H
  391     455         1     ; N-C-C-H
  391     397         1     ; N-C-C-C
  391     400         1     ; N-C-C-C
  392     396         1     ; C-N-C-O
  392     400         1     ; C-C-C-C
  392     398         1     ; C-C-C-C
  392     456         1     ; C-C-C-H
  393     396         1     ; C-C-C-O
  393     399         1     ; C-C-C-C
  393     458         1     ; C-C-C-H
  393     407         1     ; C-C-C-C
  394     416         1     ; C-C-C-O
  394     398         1     ; C-C-C-C
  394     456         1     ; C-C-C-H
  394     457         1     ; C-C-C-H
  395     416         1     ; C-N-C-O
  395     397         1     ; C-C-C-C
  395     399         1     ; C-C-C-C
  395     458         1     ; C-C-C-H
  396     400         1     ; O-C-C-C
  397     416         1     ; C-C-C-O
  397     400         1     ; C-C-C-C
  397     457         1     ; C-C-C-H
  397     401         1     ; C-C-C-C
  397     408         1     ; C-C-C-C
  397     412         1     ; C-C-C-C
  398     458         1     ; C-C-C-H
  398     402         1     ; C-C-C-C
  398     404         1     ; C-C-C-C
  398     409         1     ; C-C-C-F
  398     410         1     ; C-C-C-F
  398     411         1     ; C-C-C-F
  398     413         1     ; C-C-C-F
  398     414         1     ; C-C-C-F
  398     415         1     ; C-C-C-F
  399     456         1     ; C-C-C-H
  399     401         1     ; C-C-C-C
  399     408         1     ; C-C-C-C
  399     412         1     ; C-C-C-C
  400     407         1     ; C-C-C-C
  401     405         1     ; C-C-C-C
  401     417         1     ; C-C-C-C
  401     461         1     ; C-C-C-H
  401     409         1     ; C-C-C-F
  401     410         1     ; C-C-C-F
  401     411         1     ; C-C-C-F
  401     413         1     ; C-C-C-F
  401     414         1     ; C-C-C-F
  401     415         1     ; C-C-C-F
  402     406         1     ; C-C-C-C
  402     459         1     ; C-C-C-H
  402     408         1     ; C-C-C-C
  402     412         1     ; C-C-C-C
  402     419         1     ; C-C-C-C
  402     418         1     ; C-C-C-N
  402     462         1     ; C-C-C-O
  403     404         1     ; C-C-C-C
  403     407         1     ; C-C-C-C
  403     461         1     ; C-C-C-H
  403     420         1     ; C-C-C-O
  403     534         1     ; C-C-N-C
  404     460         1     ; C-C-C-H
  404     408         1     ; C-C-C-C
  404     412         1     ; C-C-C-C
  404     419         1     ; C-C-C-C
  405     460         1     ; C-C-C-H
  405     462         1     ; C-C-C-O
  405     459         1     ; C-C-C-H
  405     534         1     ; C-C-N-C
  406     407         1     ; C-C-C-C
  406     417         1     ; C-C-C-C
  406     418         1     ; C-C-C-N
  406     420         1     ; C-C-C-O
  407     456         1     ; C-C-C-H
  407     457         1     ; C-C-C-H
  407     460         1     ; C-C-C-H
  407     459         1     ; C-C-C-H
  408     413         1     ; C-C-C-F
  408     414         1     ; C-C-C-F
  408     415         1     ; C-C-C-F
  409     412         1     ; F-C-C-C
  410     412         1     ; F-C-C-C
  411     412         1     ; F-C-C-C
  417     460         1     ; C-C-C-H
  417     420         1     ; C-N-C-O
  417     533         1     ; C-N-C-C
  417     535         1     ; C-N-C-C
  418     532         1     ; N-C-C-C
  418     561         1     ; N-C-C-H
  418     536         1     ; N-C-C-C
  418     563         1     ; N-C-C-H
  419     461         1     ; C-C-C-H
  419     462         1     ; C-N-C-O
  419     533         1     ; C-N-C-C
  419     535         1     ; C-N-C-C
  420     534         1     ; O-C-N-C
  421     447         1     ; C-C-N-C
  421     473         1     ; C-C-N-C
  421     446         1     ; C-C-N-C
  421     426         1     ; C-C-C-C
  421     464         1     ; C-C-C-H
  421     471         1     ; C-C-C-H
  422     425         1     ; C-C-C-C
  422     465         1     ; C-C-C-H
  422     427         1     ; C-C-C-C
  423     424         1     ; C-C-C-C
  423     463         1     ; C-C-C-H
  423     427         1     ; C-C-C-C
  424     471         1     ; C-C-C-H
  424     428         1     ; C-C-C-N
  424     429         1     ; C-C-C-N
  425     464         1     ; C-C-C-H
  425     428         1     ; C-C-C-N
  425     429         1     ; C-C-C-N
  426     463         1     ; C-C-C-H
  426     465         1     ; C-C-C-H
  426     430         1     ; C-C-N-C
  426     436         1     ; C-C-N-C
  426     431         1     ; C-C-N-C
  426     432         1     ; C-C-N-C
  427     464         1     ; C-C-C-H
  427     471         1     ; C-C-C-H
  427     470         1     ; C-N-C-H
  427     437         1     ; C-N-C-C
  427     441         1     ; C-N-C-C
  427     442         1     ; C-N-C-C
  427     433         1     ; C-N-C-H
  427     434         1     ; C-N-C-H
  427     435         1     ; C-N-C-H
  428     432         1     ; N-C-N-C
  428     442         1     ; N-C-C-C
  428     438         1     ; N-C-C-C
  428     467         1     ; N-C-C-H
  428     440         1     ; N-C-C-C
  428     469         1     ; N-C-C-H
  429     436         1     ; N-C-N-C
  429     470         1     ; N-C-C-H
  429     443         1     ; N-C-C-F
  429     444         1     ; N-C-C-F
  429     445         1     ; N-C-C-F
  430     437         1     ; C-N-C-C
  430     441         1     ; C-N-C-C
  430     432         1     ; C-C-N-C
  430     443         1     ; C-C-C-F
  430     444         1     ; C-C-C-F
  430     445         1     ; C-C-C-F
  431     433         1     ; C-N-C-H
  431     434         1     ; C-N-C-H
  431     435         1     ; C-N-C-H
  431     436         1     ; C-C-N-C
  432     442         1     ; C-N-C-C
  436     470         1     ; C-N-C-H
  436     439         1     ; C-C-C-C
  436     466         1     ; C-C-C-H
  436     468         1     ; C-C-C-H
  437     440         1     ; C-C-C-C
  437     469         1     ; C-C-C-H
  438     441         1     ; C-C-C-C
  438     468         1     ; C-C-C-H
  439     467         1     ; C-C-C-H
  439     469         1     ; C-C-C-H
  440     466         1     ; C-C-C-H
  441     467         1     ; C-C-C-H
  442     470         1     ; C-C-C-H
  446     473         1     ; C-C-N-C
  446     449         1     ; C-C-C-F
  446     450         1     ; C-C-C-F
  446     472         1     ; C-C-C-F
  447     474         1     ; C-N-C-H
  447     475         1     ; C-N-C-H
  447     476         1     ; C-N-C-H
  448     473         1     ; C-C-N-C
  448     451         1     ; C-C-C-H
  452     453         1     ; H-C-C-H
  454     455         1     ; H-C-C-H
  457     458         1     ; H-C-C-H
  459     461         1     ; H-C-C-H
  462     534         1     ; O-C-N-C
  463     464         1     ; H-C-C-H
  465     471         1     ; H-C-C-H
  466     467         1     ; H-C-C-H
  468     469         1     ; H-C-C-H
  477     480         1     ; N-C-N-C
  477     517         1     ; N-C-C-C
  477     518         1     ; N-C-C-C
  477     546         1     ; N-C-C-H
  477     544         1     ; N-C-C-F
  477     545         1     ; N-C-C-F
  477     567         1     ; N-C-C-F
  478     568         1     ; N-C-N-C
  478     517         1     ; N-C-C-C
  478     518         1     ; N-C-C-C
  478     482         1     ; N-C-C-C
  478     547         1     ; N-C-C-H
  478     484         1     ; N-C-C-C
  478     549         1     ; N-C-C-H
  478     543         1     ; N-C-C-C
  479     543         1     ; C-N-C-C
  479     569         1     ; C-N-C-H
  479     570         1     ; C-N-C-H
  479     571         1     ; C-N-C-H
  479     481         1     ; C-N-C-C
  479     485         1     ; C-N-C-C
  479     546         1     ; C-N-C-H
  479     519         1     ; C-C-C-C
  479     558         1     ; C-C-C-H
  479     520         1     ; C-C-C-C
  479     560         1     ; C-C-C-H
  480     516         1     ; C-N-C-C
  480     542         1     ; C-N-C-C
  480     546         1     ; C-N-C-H
  480     483         1     ; C-C-C-C
  480     548         1     ; C-C-C-H
  480     550         1     ; C-C-C-H
  481     541         1     ; C-C-N-C
  481     484         1     ; C-C-C-C
  481     549         1     ; C-C-C-H
  481     486         1     ; C-C-C-N
  482     485         1     ; C-C-C-C
  482     550         1     ; C-C-C-H
  482     487         1     ; C-C-N-C
  482     490         1     ; C-C-N-C
  483     547         1     ; C-C-C-H
  483     549         1     ; C-C-C-H
  483     488         1     ; C-N-C-C
  483     511         1     ; C-N-C-O
  483     489         1     ; C-N-C-C
  483     491         1     ; C-N-C-O
  484     548         1     ; C-C-C-H
  484     487         1     ; C-C-N-C
  484     490         1     ; C-C-N-C
  485     541         1     ; C-C-N-C
  485     547         1     ; C-C-C-H
  485     486         1     ; C-C-C-N
  486     548         1     ; N-C-C-H
  486     550         1     ; N-C-C-H
  486     492         1     ; N-C-C-C
  486     495         1     ; N-C-C-C
  487     491         1     ; C-N-C-O
  487     495         1     ; C-C-C-C
  487     493         1     ; C-C-C-C
  487     551         1     ; C-C-C-H
  488     491         1     ; C-C-C-O
  488     494         1     ; C-C-C-C
  488     553         1     ; C-C-C-H
  488     502         1     ; C-C-C-C
  489     511         1     ; C-C-C-O
  489     493         1     ; C-C-C-C
  489     551         1     ; C-C-C-H
  489     552         1     ; C-C-C-H
  490     511         1     ; C-N-C-O
  490     492         1     ; C-C-C-C
  490     494         1     ; C-C-C-C
  490     553         1     ; C-C-C-H
  491     495         1     ; O-C-C-C
  492     511         1     ; C-C-C-O
  492     495         1     ; C-C-C-C
  492     552         1     ; C-C-C-H
  492     496         1     ; C-C-C-C
  492     503         1     ; C-C-C-C
  492     507         1     ; C-C-C-C
  493     553         1     ; C-C-C-H
  493     497         1     ; C-C-C-C
  493     499         1     ; C-C-C-C
  493     504         1     ; C-C-C-F
  493     505         1     ; C-C-C-F
  493     506         1     ; C-C-C-F
  493     508         1     ; C-C-C-F
  493     509         1     ; C-C-C-F
  493     510         1     ; C-C-C-F
  494     551         1     ; C-C-C-H
  494     496         1     ; C-C-C-C
  494     503         1     ; C-C-C-C
  494     507         1     ; C-C-C-C
  495     502         1     ; C-C-C-C
  496     500         1     ; C-C-C-C
  496     512         1     ; C-C-C-C
  496     556         1     ; C-C-C-H
  496     504         1     ; C-C-C-F
  496     505         1     ; C-C-C-F
  496     506         1     ; C-C-C-F
  496     508         1     ; C-C-C-F
  496     509         1     ; C-C-C-F
  496     510         1     ; C-C-C-F
  497     501         1     ; C-C-C-C
  497     554         1     ; C-C-C-H
  497     503         1     ; C-C-C-C
  497     507         1     ; C-C-C-C
  497     514         1     ; C-C-C-C
  497     513         1     ; C-C-C-N
  497     557         1     ; C-C-C-O
  498     499         1     ; C-C-C-C
  498     502         1     ; C-C-C-C
  498     556         1     ; C-C-C-H
  498     515         1     ; C-C-C-O
  498     629         1     ; C-C-N-C
  499     555         1     ; C-C-C-H
  499     503         1     ; C-C-C-C
  499     507         1     ; C-C-C-C
  499     514         1     ; C-C-C-C
  500     555         1     ; C-C-C-H
  500     557         1     ; C-C-C-O
  500     554         1     ; C-C-C-H
  500     629         1     ; C-C-N-C
  501     502         1     ; C-C-C-C
  501     512         1     ; C-C-C-C
  501     513         1     ; C-C-C-N
  501     515         1     ; C-C-C-O
  502     551         1     ; C-C-C-H
  502     552         1     ; C-C-C-H
  502     555         1     ; C-C-C-H
  502     554         1     ; C-C-C-H
  503     508         1     ; C-C-C-F
  503     509         1     ; C-C-C-F
  503     510         1     ; C-C-C-F
  504     507         1     ; F-C-C-C
  505     507         1     ; F-C-C-C
  506     507         1     ; F-C-C-C
  512     555         1     ; C-C-C-H
  512     515         1     ; C-N-C-O
  512     628         1     ; C-N-C-C
  512     630         1     ; C-N-C-C
  513     627         1     ; N-C-C-C
  513     656         1     ; N-C-C-H
  513     631         1     ; N-C-C-C
  513     658         1     ; N-C-C-H
  514     556         1     ; C-C-C-H
  514     557         1     ; C-N-C-O
  514     628         1     ; C-N-C-C
  514     630         1     ; C-N-C-C
  515     629         1     ; O-C-N-C
  516     542         1     ; C-C-N-C
  516     568         1     ; C-C-N-C
  516     541         1     ; C-C-N-C
  516     521         1     ; C-C-C-C
  516     559         1     ; C-C-C-H
  516     566         1     ; C-C-C-H
  517     520         1     ; C-C-C-C
  517     560         1     ; C-C-C-H
  517     522         1     ; C-C-C-C
  518     519         1     ; C-C-C-C
  518     558         1     ; C-C-C-H
  518     522         1     ; C-C-C-C
  519     566         1     ; C-C-C-H
  519     523         1     ; C-C-C-N
  519     524         1     ; C-C-C-N
  520     559         1     ; C-C-C-H
  520     523         1     ; C-C-C-N
  520     524         1     ; C-C-C-N
  521     558         1     ; C-C-C-H
  521     560         1     ; C-C-C-H
  521     525         1     ; C-C-N-C
  521     531         1     ; C-C-N-C
  521     526         1     ; C-C-N-C
  521     527         1     ; C-C-N-C
  522     559         1     ; C-C-C-H
  522     566         1     ; C-C-C-H
  522     565         1     ; C-N-C-H
  522     532         1     ; C-N-C-C
  522     536         1     ; C-N-C-C
  522     537         1     ; C-N-C-C
  522     528         1     ; C-N-C-H
  522     529         1     ; C-N-C-H
  522     530         1     ; C-N-C-H
  523     527         1     ; N-C-N-C
  523     537         1     ; N-C-C-C
  523     533         1     ; N-C-C-C
  523     562         1     ; N-C-C-H
  523     535         1     ; N-C-C-C
  523     564         1     ; N-C-C-H
  524     531         1     ; N-C-N-C
  524     565         1     ; N-C-C-H
  524     538         1     ; N-C-C-F
  524     539         1     ; N-C-C-F
  524     540         1     ; N-C-C-F
  525     532         1     ; C-N-C-C
  525     536         1     ; C-N-C-C
  525     527         1     ; C-C-N-C
  525     538         1     ; C-C-C-F
  525     539         1     ; C-C-C-F
  525     540         1     ; C-C-C-F
  526     528         1     ; C-N-C-H
  526     529         1     ; C-N-C-H
  526     530         1     ; C-N-C-H
  526     531         1     ; C-C-N-C
  527     537         1     ; C-N-C-C
  531     565         1     ; C-N-C-H
  531     534         1     ; C-C-C-C
  531     561         1     ; C-C-C-H
  531     563         1     ; C-C-C-H
  532     535         1     ; C-C-C-C
  532     564         1     ; C-C-C-H
  533     536         1     ; C-C-C-C
  533     563         1     ; C-C-C-H
  534     562         1     ; C-C-C-H
  534     564         1     ; C-C-C-H
  535     561         1     ; C-C-C-H
  536     562         1     ; C-C-C-H
  537     565         1     ; C-C-C-H
  541     568         1     ; C-C-N-C
  541     544         1     ; C-C-C-F
  541     545         1     ; C-C-C-F
  541     567         1     ; C-C-C-F
  542     569         1     ; C-N-C-H
  542     570         1     ; C-N-C-H
  542     571         1     ; C-N-C-H
  543     568         1     ; C-C-N-C
  543     546         1     ; C-C-C-H
  547     548         1     ; H-C-C-H
  549     550         1     ; H-C-C-H
  552     553         1     ; H-C-C-H
  554     556         1     ; H-C-C-H
  557     629         1     ; O-C-N-C
  558     559         1     ; H-C-C-H
  560     566         1     ; H-C-C-H
  561     562         1     ; H-C-C-H
  563     564         1     ; H-C-C-H
  572     575         1     ; N-C-N-C
  572     612         1     ; N-C-C-C
  572     613         1     ; N-C-C-C
  572     641         1     ; N-C-C-H
  572     639         1     ; N-C-C-F
  572     640         1     ; N-C-C-F
  572     662         1     ; N-C-C-F
  573     663         1     ; N-C-N-C
  573     612         1     ; N-C-C-C
  573     613         1     ; N-C-C-C
  573     577         1     ; N-C-C-C
  573     642         1     ; N-C-C-H
  573     579         1     ; N-C-C-C
  573     644         1     ; N-C-C-H
  573     638         1     ; N-C-C-C
  574     638         1     ; C-N-C-C
  574     664         1     ; C-N-C-H
  574     665         1     ; C-N-C-H
  574     666         1     ; C-N-C-H
  574     576         1     ; C-N-C-C
  574     580         1     ; C-N-C-C
  574     641         1     ; C-N-C-H
  574     614         1     ; C-C-C-C
  574     653         1     ; C-C-C-H
  574     615         1     ; C-C-C-C
  574     655         1     ; C-C-C-H
  575     611         1     ; C-N-C-C
  575     637         1     ; C-N-C-C
  575     641         1     ; C-N-C-H
  575     578         1     ; C-C-C-C
  575     643         1     ; C-C-C-H
  575     645         1     ; C-C-C-H
  576     636         1     ; C-C-N-C
  576     579         1     ; C-C-C-C
  576     644         1     ; C-C-C-H
  576     581         1     ; C-C-C-N
  577     580         1     ; C-C-C-C
  577     645         1     ; C-C-C-H
  577     582         1     ; C-C-N-C
  577     585         1     ; C-C-N-C
  578     642         1     ; C-C-C-H
  578     644         1     ; C-C-C-H
  578     583         1     ; C-N-C-C
  578     606         1     ; C-N-C-O
  578     584         1     ; C-N-C-C
  578     586         1     ; C-N-C-O
  579     643         1     ; C-C-C-H
  579     582         1     ; C-C-N-C
  579     585         1     ; C-C-N-C
  580     636         1     ; C-C-N-C
  580     642         1     ; C-C-C-H
  580     581         1     ; C-C-C-N
  581     643         1     ; N-C-C-H
  581     645         1     ; N-C-C-H
  581     587         1     ; N-C-C-C
  581     590         1     ; N-C-C-C
  582     586         1     ; C-N-C-O
  582     590         1     ; C-C-C-C
  582     588         1     ; C-C-C-C
  582     646         1     ; C-C-C-H
  583     586         1     ; C-C-C-O
  583     589         1     ; C-C-C-C
  583     648         1     ; C-C-C-H
  583     597         1     ; C-C-C-C
  584     606         1     ; C-C-C-O
  584     588         1     ; C-C-C-C
  584     646         1     ; C-C-C-H
  584     647         1     ; C-C-C-H
  585     606         1     ; C-N-C-O
  585     587         1     ; C-C-C-C
  585     589         1     ; C-C-C-C
  585     648         1     ; C-C-C-H
  586     590         1     ; O-C-C-C
  587     606         1     ; C-C-C-O
  587     590         1     ; C-C-C-C
  587     647         1     ; C-C-C-H
  587     591         1     ; C-C-C-C
  587     598         1     ; C-C-C-C
  587     602         1     ; C-C-C-C
  588     648         1     ; C-C-C-H
  588     592         1     ; C-C-C-C
  588     594         1     ; C-C-C-C
  588     599         1     ; C-C-C-F
  588     600         1     ; C-C-C-F
  588     601         1     ; C-C-C-F
  588     603         1     ; C-C-C-F
  588     604         1     ; C-C-C-F
  588     605         1     ; C-C-C-F
  589     646         1     ; C-C-C-H
  589     591         1     ; C-C-C-C
  589     598         1     ; C-C-C-C
  589     602         1     ; C-C-C-C
  590     597         1     ; C-C-C-C
  591     595         1     ; C-C-C-C
  591     607         1     ; C-C-C-C
  591     651         1     ; C-C-C-H
  591     599         1     ; C-C-C-F
  591     600         1     ; C-C-C-F
  591     601         1     ; C-C-C-F
  591     603         1     ; C-C-C-F
  591     604         1     ; C-C-C-F
  591     605         1     ; C-C-C-F
  592     596         1     ; C-C-C-C
  592     649         1     ; C-C-C-H
  592     598         1     ; C-C-C-C
  592     602         1     ; C-C-C-C
  592     609         1     ; C-C-C-C
  592     608         1     ; C-C-C-N
  592     652         1     ; C-C-C-O
  593     594         1     ; C-C-C-C
  593     597         1     ; C-C-C-C
  593     651         1     ; C-C-C-H
  593     610         1     ; C-C-C-O
  593     724         1     ; C-C-N-C
  594     650         1     ; C-C-C-H
  594     598         1     ; C-C-C-C
  594     602         1     ; C-C-C-C
  594     609         1     ; C-C-C-C
  595     650         1     ; C-C-C-H
  595     652         1     ; C-C-C-O
  595     649         1     ; C-C-C-H
  595     724         1     ; C-C-N-C
  596     597         1     ; C-C-C-C
  596     607         1     ; C-C-C-C
  596     608         1     ; C-C-C-N
  596     610         1     ; C-C-C-O
  597     646         1     ; C-C-C-H
  597     647         1     ; C-C-C-H
  597     650         1     ; C-C-C-H
  597     649         1     ; C-C-C-H
  598     603         1     ; C-C-C-F
  598     604         1     ; C-C-C-F
  598     605         1     ; C-C-C-F
  599     602         1     ; F-C-C-C
  600     602         1     ; F-C-C-C
  601     602         1     ; F-C-C-C
  607     650         1     ; C-C-C-H
  607     610         1     ; C-N-C-O
  607     723         1     ; C-N-C-C
  607     725         1     ; C-N-C-C
  608     722         1     ; N-C-C-C
  608     751         1     ; N-C-C-H
  608     726         1     ; N-C-C-C
  608     753         1     ; N-C-C-H
  609     651         1     ; C-C-C-H
  609     652         1     ; C-N-C-O
  609     723         1     ; C-N-C-C
  609     725         1     ; C-N-C-C
  610     724         1     ; O-C-N-C
  611     637         1     ; C-C-N-C
  611     663         1     ; C-C-N-C
  611     636         1     ; C-C-N-C
  611     616         1     ; C-C-C-C
  611     654         1     ; C-C-C-H
  611     661         1     ; C-C-C-H
  612     615         1     ; C-C-C-C
  612     655         1     ; C-C-C-H
  612     617         1     ; C-C-C-C
  613     614         1     ; C-C-C-C
  613     653         1     ; C-C-C-H
  613     617         1     ; C-C-C-C
  614     661         1     ; C-C-C-H
  614     618         1     ; C-C-C-N
  614     619         1     ; C-C-C-N
  615     654         1     ; C-C-C-H
  615     618         1     ; C-C-C-N
  615     619         1     ; C-C-C-N
  616     653         1     ; C-C-C-H
  616     655         1     ; C-C-C-H
  616     620         1     ; C-C-N-C
  616     626         1     ; C-C-N-C
  616     621         1     ; C-C-N-C
  616     622         1     ; C-C-N-C
  617     654         1     ; C-C-C-H
  617     661         1     ; C-C-C-H
  617     660         1     ; C-N-C-H
  617     627         1     ; C-N-C-C
  617     631         1     ; C-N-C-C
  617     632         1     ; C-N-C-C
  617     623         1     ; C-N-C-H
  617     624         1     ; C-N-C-H
  617     625         1     ; C-N-C-H
  618     622         1     ; N-C-N-C
  618     632         1     ; N-C-C-C
  618     628         1     ; N-C-C-C
  618     657         1     ; N-C-C-H
  618     630         1     ; N-C-C-C
  618     659         1     ; N-C-C-H
  619     626         1     ; N-C-N-C
  619     660         1     ; N-C-C-H
  619     633         1     ; N-C-C-F
  619     634         1     ; N-C-C-F
  619     635         1     ; N-C-C-F
  620     627         1     ; C-N-C-C
  620     631         1     ; C-N-C-C
  620     622         1     ; C-C-N-C
  620     633         1     ; C-C-C-F
  620     634         1     ; C-C-C-F
  620     635         1     ; C-C-C-F
  621     623         1     ; C-N-C-H
  621     624         1     ; C-N-C-H
  621     625         1     ; C-N-C-H
  621     626         1     ; C-C-N-C
  622     632         1     ; C-N-C-C
  626     660         1     ; C-N-C-H
  626     629         1     ; C-C-C-C
  626     656         1     ; C-C-C-H
  626     658         1     ; C-C-C-H
  627     630         1     ; C-C-C-C
  627     659         1     ; C-C-C-H
  628     631         1     ; C-C-C-C
  628     658         1     ; C-C-C-H
  629     657         1     ; C-C-C-H
  629     659         1     ; C-C-C-H
  630     656         1     ; C-C-C-H
  631     657         1     ; C-C-C-H
  632     660         1     ; C-C-C-H
  636     663         1     ; C-C-N-C
  636     639         1     ; C-C-C-F
  636     640         1     ; C-C-C-F
  636     662         1     ; C-C-C-F
  637     664         1     ; C-N-C-H
  637     665         1     ; C-N-C-H
  637     666         1     ; C-N-C-H
  638     663         1     ; C-C-N-C
  638     641         1     ; C-C-C-H
  642     643         1     ; H-C-C-H
  644     645         1     ; H-C-C-H
  647     648         1     ; H-C-C-H
  649     651         1     ; H-C-C-H
  652     724         1     ; O-C-N-C
  653     654         1     ; H-C-C-H
  655     661         1     ; H-C-C-H
  656     657         1     ; H-C-C-H
  658     659         1     ; H-C-C-H
  667     670         1     ; N-C-N-C
  667     707         1     ; N-C-C-C
  667     708         1     ; N-C-C-C
  667     736         1     ; N-C-C-H
  667     734         1     ; N-C-C-F
  667     735         1     ; N-C-C-F
  667     757         1     ; N-C-C-F
  668     758         1     ; N-C-N-C
  668     707         1     ; N-C-C-C
  668     708         1     ; N-C-C-C
  668     672         1     ; N-C-C-C
  668     737         1     ; N-C-C-H
  668     674         1     ; N-C-C-C
  668     739         1     ; N-C-C-H
  668     733         1     ; N-C-C-C
  669     733         1     ; C-N-C-C
  669     759         1     ; C-N-C-H
  669     760         1     ; C-N-C-H
  669     761         1     ; C-N-C-H
  669     671         1     ; C-N-C-C
  669     675         1     ; C-N-C-C
  669     736         1     ; C-N-C-H
  669     709         1     ; C-C-C-C
  669     748         1     ; C-C-C-H
  669     710         1     ; C-C-C-C
  669     750         1     ; C-C-C-H
  670     706         1     ; C-N-C-C
  670     732         1     ; C-N-C-C
  670     736         1     ; C-N-C-H
  670     673         1     ; C-C-C-C
  670     738         1     ; C-C-C-H
  670     740         1     ; C-C-C-H
  671     731         1     ; C-C-N-C
  671     674         1     ; C-C-C-C
  671     739         1     ; C-C-C-H
  671     676         1     ; C-C-C-N
  672     675         1     ; C-C-C-C
  672     740         1     ; C-C-C-H
  672     677         1     ; C-C-N-C
  672     680         1     ; C-C-N-C
  673     737         1     ; C-C-C-H
  673     739         1     ; C-C-C-H
  673     678         1     ; C-N-C-C
  673     701         1     ; C-N-C-O
  673     679         1     ; C-N-C-C
  673     681         1     ; C-N-C-O
  674     738         1     ; C-C-C-H
  674     677         1     ; C-C-N-C
  674     680         1     ; C-C-N-C
  675     731         1     ; C-C-N-C
  675     737         1     ; C-C-C-H
  675     676         1     ; C-C-C-N
  676     738         1     ; N-C-C-H
  676     740         1     ; N-C-C-H
  676     682         1     ; N-C-C-C
  676     685         1     ; N-C-C-C
  677     681         1     ; C-N-C-O
  677     685         1     ; C-C-C-C
  677     683         1     ; C-C-C-C
  677     741         1     ; C-C-C-H
  678     681         1     ; C-C-C-O
  678     684         1     ; C-C-C-C
  678     743         1     ; C-C-C-H
  678     692         1     ; C-C-C-C
  679     701         1     ; C-C-C-O
  679     683         1     ; C-C-C-C
  679     741         1     ; C-C-C-H
  679     742         1     ; C-C-C-H
  680     701         1     ; C-N-C-O
  680     682         1     ; C-C-C-C
  680     684         1     ; C-C-C-C
  680     743         1     ; C-C-C-H
  681     685         1     ; O-C-C-C
  682     701         1     ; C-C-C-O
  682     685         1     ; C-C-C-C
  682     742         1     ; C-C-C-H
  682     686         1     ; C-C-C-C
  682     693         1     ; C-C-C-C
  682     697         1     ; C-C-C-C
  683     743         1     ; C-C-C-H
  683     687         1     ; C-C-C-C
  683     689         1     ; C-C-C-C
  683     694         1     ; C-C-C-F
  683     695         1     ; C-C-C-F
  683     696         1     ; C-C-C-F
  683     698         1     ; C-C-C-F
  683     699         1     ; C-C-C-F
  683     700         1     ; C-C-C-F
  684     741         1     ; C-C-C-H
  684     686         1     ; C-C-C-C
  684     693         1     ; C-C-C-C
  684     697         1     ; C-C-C-C
  685     692         1     ; C-C-C-C
  686     690         1     ; C-C-C-C
  686     702         1     ; C-C-C-C
  686     746         1     ; C-C-C-H
  686     694         1     ; C-C-C-F
  686     695         1     ; C-C-C-F
  686     696         1     ; C-C-C-F
  686     698         1     ; C-C-C-F
  686     699         1     ; C-C-C-F
  686     700         1     ; C-C-C-F
  687     691         1     ; C-C-C-C
  687     744         1     ; C-C-C-H
  687     693         1     ; C-C-C-C
  687     697         1     ; C-C-C-C
  687     704         1     ; C-C-C-C
  687     703         1     ; C-C-C-N
  687     747         1     ; C-C-C-O
  688     689         1     ; C-C-C-C
  688     692         1     ; C-C-C-C
  688     746         1     ; C-C-C-H
  688     705         1     ; C-C-C-O
  688     819         1     ; C-C-N-C
  689     745         1     ; C-C-C-H
  689     693         1     ; C-C-C-C
  689     697         1     ; C-C-C-C
  689     704         1     ; C-C-C-C
  690     745         1     ; C-C-C-H
  690     747         1     ; C-C-C-O
  690     744         1     ; C-C-C-H
  690     819         1     ; C-C-N-C
  691     692         1     ; C-C-C-C
  691     702         1     ; C-C-C-C
  691     703         1     ; C-C-C-N
  691     705         1     ; C-C-C-O
  692     741         1     ; C-C-C-H
  692     742         1     ; C-C-C-H
  692     745         1     ; C-C-C-H
  692     744         1     ; C-C-C-H
  693     698         1     ; C-C-C-F
  693     699         1     ; C-C-C-F
  693     700         1     ; C-C-C-F
  694     697         1     ; F-C-C-C
  695     697         1     ; F-C-C-C
  696     697         1     ; F-C-C-C
  702     745         1     ; C-C-C-H
  702     705         1     ; C-N-C-O
  702     818         1     ; C-N-C-C
  702     820         1     ; C-N-C-C
  703     817         1     ; N-C-C-C
  703     846         1     ; N-C-C-H
  703     821         1     ; N-C-C-C
  703     848         1     ; N-C-C-H
  704     746         1     ; C-C-C-H
  704     747         1     ; C-N-C-O
  704     818         1     ; C-N-C-C
  704     820         1     ; C-N-C-C
  705     819         1     ; O-C-N-C
  706     732         1     ; C-C-N-C
  706     758         1     ; C-C-N-C
  706     731         1     ; C-C-N-C
  706     711         1     ; C-C-C-C
  706     749         1     ; C-C-C-H
  706     756         1     ; C-C-C-H
  707     710         1     ; C-C-C-C
  707     750         1     ; C-C-C-H
  707     712         1     ; C-C-C-C
  708     709         1     ; C-C-C-C
  708     748         1     ; C-C-C-H
  708     712         1     ; C-C-C-C
  709     756         1     ; C-C-C-H
  709     713         1     ; C-C-C-N
  709     714         1     ; C-C-C-N
  710     749         1     ; C-C-C-H
  710     713         1     ; C-C-C-N
  710     714         1     ; C-C-C-N
  711     748         1     ; C-C-C-H
  711     750         1     ; C-C-C-H
  711     715         1     ; C-C-N-C
  711     721         1     ; C-C-N-C
  711     716         1     ; C-C-N-C
  711     717         1     ; C-C-N-C
  712     749         1     ; C-C-C-H
  712     756         1     ; C-C-C-H
  712     755         1     ; C-N-C-H
  712     722         1     ; C-N-C-C
  712     726         1     ; C-N-C-C
  712     727         1     ; C-N-C-C
  712     718         1     ; C-N-C-H
  712     719         1     ; C-N-C-H
  712     720         1     ; C-N-C-H
  713     717         1     ; N-C-N-C
  713     727         1     ; N-C-C-C
  713     723         1     ; N-C-C-C
  713     752         1     ; N-C-C-H
  713     725         1     ; N-C-C-C
  713     754         1     ; N-C-C-H
  714     721         1     ; N-C-N-C
  714     755         1     ; N-C-C-H
  714     728         1     ; N-C-C-F
  714     729         1     ; N-C-C-F
  714     730         1     ; N-C-C-F
  715     722         1     ; C-N-C-C
  715     726         1     ; C-N-C-C
  715     717         1     ; C-C-N-C
  715     728         1     ; C-C-C-F
  715     729         1     ; C-C-C-F
  715     730         1     ; C-C-C-F
  716     718         1     ; C-N-C-H
  716     719         1     ; C-N-C-H
  716     720         1     ; C-N-C-H
  716     721         1     ; C-C-N-C
  717     727         1     ; C-N-C-C
  721     755         1     ; C-N-C-H
  721     724         1     ; C-C-C-C
  721     751         1     ; C-C-C-H
  721     753         1     ; C-C-C-H
  722     725         1     ; C-C-C-C
  722     754         1     ; C-C-C-H
  723     726         1     ; C-C-C-C
  723     753         1     ; C-C-C-H
  724     752         1     ; C-C-C-H
  724     754         1     ; C-C-C-H
  725     751         1     ; C-C-C-H
  726     752         1     ; C-C-C-H
  727     755         1     ; C-C-C-H
  731     758         1     ; C-C-N-C
  731     734         1     ; C-C-C-F
  731     735         1     ; C-C-C-F
  731     757         1     ; C-C-C-F
  732     759         1     ; C-N-C-H
  732     760         1     ; C-N-C-H
  732     761         1     ; C-N-C-H
  733     758         1     ; C-C-N-C
  733     736         1     ; C-C-C-H
  737     738         1     ; H-C-C-H
  739     740         1     ; H-C-C-H
  742     743         1     ; H-C-C-H
  744     746         1     ; H-C-C-H
  747     819         1     ; O-C-N-C
  748     749         1     ; H-C-C-H
  750     756         1     ; H-C-C-H
  751     752         1     ; H-C-C-H
  753     754         1     ; H-C-C-H
  762     765         1     ; N-C-N-C
  762     802         1     ; N-C-C-C
  762     803         1     ; N-C-C-C
  762     831         1     ; N-C-C-H
  762     829         1     ; N-C-C-F
  762     830         1     ; N-C-C-F
  762     852         1     ; N-C-C-F
  763     853         1     ; N-C-N-C
  763     802         1     ; N-C-C-C
  763     803         1     ; N-C-C-C
  763     767         1     ; N-C-C-C
  763     832         1     ; N-C-C-H
  763     769         1     ; N-C-C-C
  763     834         1     ; N-C-C-H
  763     828         1     ; N-C-C-C
  764     828         1     ; C-N-C-C
  764     854         1     ; C-N-C-H
  764     855         1     ; C-N-C-H
  764     856         1     ; C-N-C-H
  764     766         1     ; C-N-C-C
  764     770         1     ; C-N-C-C
  764     831         1     ; C-N-C-H
  764     804         1     ; C-C-C-C
  764     843         1     ; C-C-C-H
  764     805         1     ; C-C-C-C
  764     845         1     ; C-C-C-H
  765     801         1     ; C-N-C-C
  765     827         1     ; C-N-C-C
  765     831         1     ; C-N-C-H
  765     768         1     ; C-C-C-C
  765     833         1     ; C-C-C-H
  765     835         1     ; C-C-C-H
  766     826         1     ; C-C-N-C
  766     769         1     ; C-C-C-C
  766     834         1     ; C-C-C-H
  766     771         1     ; C-C-C-N
  767     770         1     ; C-C-C-C
  767     835         1     ; C-C-C-H
  767     772         1     ; C-C-N-C
  767     775         1     ; C-C-N-C
  768     832         1     ; C-C-C-H
  768     834         1     ; C-C-C-H
  768     773         1     ; C-N-C-C
  768     796         1     ; C-N-C-O
  768     774         1     ; C-N-C-C
  768     776         1     ; C-N-C-O
  769     833         1     ; C-C-C-H
  769     772         1     ; C-C-N-C
  769     775         1     ; C-C-N-C
  770     826         1     ; C-C-N-C
  770     832         1     ; C-C-C-H
  770     771         1     ; C-C-C-N
  771     833         1     ; N-C-C-H
  771     835         1     ; N-C-C-H
  771     777         1     ; N-C-C-C
  771     780         1     ; N-C-C-C
  772     776         1     ; C-N-C-O
  772     780         1     ; C-C-C-C
  772     778         1     ; C-C-C-C
  772     836         1     ; C-C-C-H
  773     776         1     ; C-C-C-O
  773     779         1     ; C-C-C-C
  773     838         1     ; C-C-C-H
  773     787         1     ; C-C-C-C
  774     796         1     ; C-C-C-O
  774     778         1     ; C-C-C-C
  774     836         1     ; C-C-C-H
  774     837         1     ; C-C-C-H
  775     796         1     ; C-N-C-O
  775     777         1     ; C-C-C-C
  775     779         1     ; C-C-C-C
  775     838         1     ; C-C-C-H
  776     780         1     ; O-C-C-C
  777     796         1     ; C-C-C-O
  777     780         1     ; C-C-C-C
  777     837         1     ; C-C-C-H
  777     781         1     ; C-C-C-C
  777     788         1     ; C-C-C-C
  777     792         1     ; C-C-C-C
  778     838         1     ; C-C-C-H
  778     782         1     ; C-C-C-C
  778     784         1     ; C-C-C-C
  778     789         1     ; C-C-C-F
  778     790         1     ; C-C-C-F
  778     791         1     ; C-C-C-F
  778     793         1     ; C-C-C-F
  778     794         1     ; C-C-C-F
  778     795         1     ; C-C-C-F
  779     836         1     ; C-C-C-H
  779     781         1     ; C-C-C-C
  779     788         1     ; C-C-C-C
  779     792         1     ; C-C-C-C
  780     787         1     ; C-C-C-C
  781     785         1     ; C-C-C-C
  781     797         1     ; C-C-C-C
  781     841         1     ; C-C-C-H
  781     789         1     ; C-C-C-F
  781     790         1     ; C-C-C-F
  781     791         1     ; C-C-C-F
  781     793         1     ; C-C-C-F
  781     794         1     ; C-C-C-F
  781     795         1     ; C-C-C-F
  782     786         1     ; C-C-C-C
  782     839         1     ; C-C-C-H
  782     788         1     ; C-C-C-C
  782     792         1     ; C-C-C-C
  782     799         1     ; C-C-C-C
  782     798         1     ; C-C-C-N
  782     842         1     ; C-C-C-O
  783     784         1     ; C-C-C-C
  783     787         1     ; C-C-C-C
  783     841         1     ; C-C-C-H
  783     800         1     ; C-C-C-O
  783     914         1     ; C-C-N-C
  784     840         1     ; C-C-C-H
  784     788         1     ; C-C-C-C
  784     792         1     ; C-C-C-C
  784     799         1     ; C-C-C-C
  785     840         1     ; C-C-C-H
  785     842         1     ; C-C-C-O
  785     839         1     ; C-C-C-H
  785     914         1     ; C-C-N-C
  786     787         1     ; C-C-C-C
  786     797         1     ; C-C-C-C
  786     798         1     ; C-C-C-N
  786     800         1     ; C-C-C-O
  787     836         1     ; C-C-C-H
  787     837         1     ; C-C-C-H
  787     840         1     ; C-C-C-H
  787     839         1     ; C-C-C-H
  788     793         1     ; C-C-C-F
  788     794         1     ; C-C-C-F
  788     795         1     ; C-C-C-F
  789     792         1     ; F-C-C-C
  790     792         1     ; F-C-C-C
  791     792         1     ; F-C-C-C
  797     840         1     ; C-C-C-H
  797     800         1     ; C-N-C-O
  797     913         1     ; C-N-C-C
  797     915         1     ; C-N-C-C
  798     912         1     ; N-C-C-C
  798     941         1     ; N-C-C-H
  798     916         1     ; N-C-C-C
  798     943         1     ; N-C-C-H
  799     841         1     ; C-C-C-H
  799     842         1     ; C-N-C-O
  799     913         1     ; C-N-C-C
  799     915         1     ; C-N-C-C
  800     914         1     ; O-C-N-C
  801     827         1     ; C-C-N-C
  801     853         1     ; C-C-N-C
  801     826         1     ; C-C-N-C
  801     806         1     ; C-C-C-C
  801     844         1     ; C-C-C-H
  801     851         1     ; C-C-C-H
  802     805         1     ; C-C-C-C
  802     845         1     ; C-C-C-H
  802     807         1     ; C-C-C-C
  803     804         1     ; C-C-C-C
  803     843         1     ; C-C-C-H
  803     807         1     ; C-C-C-C
  804     851         1     ; C-C-C-H
  804     808         1     ; C-C-C-N
  804     809         1     ; C-C-C-N
  805     844         1     ; C-C-C-H
  805     808         1     ; C-C-C-N
  805     809         1     ; C-C-C-N
  806     843         1     ; C-C-C-H
  806     845         1     ; C-C-C-H
  806     810         1     ; C-C-N-C
  806     816         1     ; C-C-N-C
  806     811         1     ; C-C-N-C
  806     812         1     ; C-C-N-C
  807     844         1     ; C-C-C-H
  807     851         1     ; C-C-C-H
  807     850         1     ; C-N-C-H
  807     817         1     ; C-N-C-C
  807     821         1     ; C-N-C-C
  807     822         1     ; C-N-C-C
  807     813         1     ; C-N-C-H
  807     814         1     ; C-N-C-H
  807     815         1     ; C-N-C-H
  808     812         1     ; N-C-N-C
  808     822         1     ; N-C-C-C
  808     818         1     ; N-C-C-C
  808     847         1     ; N-C-C-H
  808     820         1     ; N-C-C-C
  808     849         1     ; N-C-C-H
  809     816         1     ; N-C-N-C
  809     850         1     ; N-C-C-H
  809     823         1     ; N-C-C-F
  809     824         1     ; N-C-C-F
  809     825         1     ; N-C-C-F
  810     817         1     ; C-N-C-C
  810     821         1     ; C-N-C-C
  810     812         1     ; C-C-N-C
  810     823         1     ; C-C-C-F
  810     824         1     ; C-C-C-F
  810     825         1     ; C-C-C-F
  811     813         1     ; C-N-C-H
  811     814         1     ; C-N-C-H
  811     815         1     ; C-N-C-H
  811     816         1     ; C-C-N-C
  812     822         1     ; C-N-C-C
  816     850         1     ; C-N-C-H
  816     819         1     ; C-C-C-C
  816     846         1     ; C-C-C-H
  816     848         1     ; C-C-C-H
  817     820         1     ; C-C-C-C
  817     849         1     ; C-C-C-H
  818     821         1     ; C-C-C-C
  818     848         1     ; C-C-C-H
  819     847         1     ; C-C-C-H
  819     849         1     ; C-C-C-H
  820     846         1     ; C-C-C-H
  821     847         1     ; C-C-C-H
  822     850         1     ; C-C-C-H
  826     853         1     ; C-C-N-C
  826     829         1     ; C-C-C-F
  826     830         1     ; C-C-C-F
  826     852         1     ; C-C-C-F
  827     854         1     ; C-N-C-H
  827     855         1     ; C-N-C-H
  827     856         1     ; C-N-C-H
  828     853         1     ; C-C-N-C
  828     831         1     ; C-C-C-H
  832     833         1     ; H-C-C-H
  834     835         1     ; H-C-C-H
  837     838         1     ; H-C-C-H
  839     841         1     ; H-C-C-H
  842     914         1     ; O-C-N-C
  843     844         1     ; H-C-C-H
  845     851         1     ; H-C-C-H
  846     847         1     ; H-C-C-H
  848     849         1     ; H-C-C-H
  857     860         1     ; N-C-N-C
  857     897         1     ; N-C-C-C
  857     898         1     ; N-C-C-C
  857     926         1     ; N-C-C-H
  857     924         1     ; N-C-C-F
  857     925         1     ; N-C-C-F
  857     947         1     ; N-C-C-F
  858     948         1     ; N-C-N-C
  858     897         1     ; N-C-C-C
  858     898         1     ; N-C-C-C
  858     862         1     ; N-C-C-C
  858     927         1     ; N-C-C-H
  858     864         1     ; N-C-C-C
  858     929         1     ; N-C-C-H
  858     923         1     ; N-C-C-C
  859     923         1     ; C-N-C-C
  859     949         1     ; C-N-C-H
  859     950         1     ; C-N-C-H
  859     951         1     ; C-N-C-H
  859     861         1     ; C-N-C-C
  859     865         1     ; C-N-C-C
  859     926         1     ; C-N-C-H
  859     899         1     ; C-C-C-C
  859     938         1     ; C-C-C-H
  859     900         1     ; C-C-C-C
  859     940         1     ; C-C-C-H
  860     896         1     ; C-N-C-C
  860     922         1     ; C-N-C-C
  860     926         1     ; C-N-C-H
  860     863         1     ; C-C-C-C
  860     928         1     ; C-C-C-H
  860     930         1     ; C-C-C-H
  861     921         1     ; C-C-N-C
  861     864         1     ; C-C-C-C
  861     929         1     ; C-C-C-H
  861     866         1     ; C-C-C-N
  862     865         1     ; C-C-C-C
  862     930         1     ; C-C-C-H
  862     867         1     ; C-C-N-C
  862     870         1     ; C-C-N-C
  863     927         1     ; C-C-C-H
  863     929         1     ; C-C-C-H
  863     868         1     ; C-N-C-C
  863     891         1     ; C-N-C-O
  863     869         1     ; C-N-C-C
  863     871         1     ; C-N-C-O
  864     928         1     ; C-C-C-H
  864     867         1     ; C-C-N-C
  864     870         1     ; C-C-N-C
  865     921         1     ; C-C-N-C
  865     927         1     ; C-C-C-H
  865     866         1     ; C-C-C-N
  866     928         1     ; N-C-C-H
  866     930         1     ; N-C-C-H
  866     872         1     ; N-C-C-C
  866     875         1     ; N-C-C-C
  867     871         1     ; C-N-C-O
  867     875         1     ; C-C-C-C
  867     873         1     ; C-C-C-C
  867     931         1     ; C-C-C-H
  868     871         1     ; C-C-C-O
  868     874         1     ; C-C-C-C
  868     933         1     ; C-C-C-H
  868     882         1     ; C-C-C-C
  869     891         1     ; C-C-C-O
  869     873         1     ; C-C-C-C
  869     931         1     ; C-C-C-H
  869     932         1     ; C-C-C-H
  870     891         1     ; C-N-C-O
  870     872         1     ; C-C-C-C
  870     874         1     ; C-C-C-C
  870     933         1     ; C-C-C-H
  871     875         1     ; O-C-C-C
  872     891         1     ; C-C-C-O
  872     875         1     ; C-C-C-C
  872     932         1     ; C-C-C-H
  872     876         1     ; C-C-C-C
  872     883         1     ; C-C-C-C
  872     887         1     ; C-C-C-C
  873     933         1     ; C-C-C-H
  873     877         1     ; C-C-C-C
  873     879         1     ; C-C-C-C
  873     884         1     ; C-C-C-F
  873     885         1     ; C-C-C-F
  873     886         1     ; C-C-C-F
  873     888         1     ; C-C-C-F
  873     889         1     ; C-C-C-F
  873     890         1     ; C-C-C-F
  874     931         1     ; C-C-C-H
  874     876         1     ; C-C-C-C
  874     883         1     ; C-C-C-C
  874     887         1     ; C-C-C-C
  875     882         1     ; C-C-C-C
  876     880         1     ; C-C-C-C
  876     892         1     ; C-C-C-C
  876     936         1     ; C-C-C-H
  876     884         1     ; C-C-C-F
  876     885         1     ; C-C-C-F
  876     886         1     ; C-C-C-F
  876     888         1     ; C-C-C-F
  876     889         1     ; C-C-C-F
  876     890         1     ; C-C-C-F
  877     881         1     ; C-C-C-C
  877     934         1     ; C-C-C-H
  877     883         1     ; C-C-C-C
  877     887         1     ; C-C-C-C
  877     894         1     ; C-C-C-C
  877     893         1     ; C-C-C-N
  877     937         1     ; C-C-C-O
  878     879         1     ; C-C-C-C
  878     882         1     ; C-C-C-C
  878     936         1     ; C-C-C-H
  878     895         1     ; C-C-C-O
  878    1009         1     ; C-C-N-C
  879     935         1     ; C-C-C-H
  879     883         1     ; C-C-C-C
  879     887         1     ; C-C-C-C
  879     894         1     ; C-C-C-C
  880     935         1     ; C-C-C-H
  880     937         1     ; C-C-C-O
  880     934         1     ; C-C-C-H
  880    1009         1     ; C-C-N-C
  881     882         1     ; C-C-C-C
  881     892         1     ; C-C-C-C
  881     893         1     ; C-C-C-N
  881     895         1     ; C-C-C-O
  882     931         1     ; C-C-C-H
  882     932         1     ; C-C-C-H
  882     935         1     ; C-C-C-H
  882     934         1     ; C-C-C-H
  883     888         1     ; C-C-C-F
  883     889         1     ; C-C-C-F
  883     890         1     ; C-C-C-F
  884     887         1     ; F-C-C-C
  885     887         1     ; F-C-C-C
  886     887         1     ; F-C-C-C
  892     935         1     ; C-C-C-H
  892     895         1     ; C-N-C-O
  892    1008         1     ; C-N-C-C
  892    1010         1     ; C-N-C-C
  893    1007         1     ; N-C-C-C
  893    1036         1     ; N-C-C-H
  893    1011         1     ; N-C-C-C
  893    1038         1     ; N-C-C-H
  894     936         1     ; C-C-C-H
  894     937         1     ; C-N-C-O
  894    1008         1     ; C-N-C-C
  894    1010         1     ; C-N-C-C
  895    1009         1     ; O-C-N-C
  896     922         1     ; C-C-N-C
  896     948         1     ; C-C-N-C
  896     921         1     ; C-C-N-C
  896     901         1     ; C-C-C-C
  896     939         1     ; C-C-C-H
  896     946         1     ; C-C-C-H
  897     900         1     ; C-C-C-C
  897     940         1     ; C-C-C-H
  897     902         1     ; C-C-C-C
  898     899         1     ; C-C-C-C
  898     938         1     ; C-C-C-H
  898     902         1     ; C-C-C-C
  899     946         1     ; C-C-C-H
  899     903         1     ; C-C-C-N
  899     904         1     ; C-C-C-N
  900     939         1     ; C-C-C-H
  900     903         1     ; C-C-C-N
  900     904         1     ; C-C-C-N
  901     938         1     ; C-C-C-H
  901     940         1     ; C-C-C-H
  901     905         1     ; C-C-N-C
  901     911         1     ; C-C-N-C
  901     906         1     ; C-C-N-C
  901     907         1     ; C-C-N-C
  902     939         1     ; C-C-C-H
  902     946         1     ; C-C-C-H
  902     945         1     ; C-N-C-H
  902     912         1     ; C-N-C-C
  902     916         1     ; C-N-C-C
  902     917         1     ; C-N-C-C
  902     908         1     ; C-N-C-H
  902     909         1     ; C-N-C-H
  902     910         1     ; C-N-C-H
  903     907         1     ; N-C-N-C
  903     917         1     ; N-C-C-C
  903     913         1     ; N-C-C-C
  903     942         1     ; N-C-C-H
  903     915         1     ; N-C-C-C
  903     944         1     ; N-C-C-H
  904     911         1     ; N-C-N-C
  904     945         1     ; N-C-C-H
  904     918         1     ; N-C-C-F
  904     919         1     ; N-C-C-F
  904     920         1     ; N-C-C-F
  905     912         1     ; C-N-C-C
  905     916         1     ; C-N-C-C
  905     907         1     ; C-C-N-C
  905     918         1     ; C-C-C-F
  905     919         1     ; C-C-C-F
  905     920         1     ; C-C-C-F
  906     908         1     ; C-N-C-H
  906     909         1     ; C-N-C-H
  906     910         1     ; C-N-C-H
  906     911         1     ; C-C-N-C
  907     917         1     ; C-N-C-C
  911     945         1     ; C-N-C-H
  911     914         1     ; C-C-C-C
  911     941         1     ; C-C-C-H
  911     943         1     ; C-C-C-H
  912     915         1     ; C-C-C-C
  912     944         1     ; C-C-C-H
  913     916         1     ; C-C-C-C
  913     943         1     ; C-C-C-H
  914     942         1     ; C-C-C-H
  914     944         1     ; C-C-C-H
  915     941         1     ; C-C-C-H
  916     942         1     ; C-C-C-H
  917     945         1     ; C-C-C-H
  921     948         1     ; C-C-N-C
  921     924         1     ; C-C-C-F
  921     925         1     ; C-C-C-F
  921     947         1     ; C-C-C-F
  922     949         1     ; C-N-C-H
  922     950         1     ; C-N-C-H
  922     951         1     ; C-N-C-H
  923     948         1     ; C-C-N-C
  923     926         1     ; C-C-C-H
  927     928         1     ; H-C-C-H
  929     930         1     ; H-C-C-H
  932     933         1     ; H-C-C-H
  934     936         1     ; H-C-C-H
  937    1009         1     ; O-C-N-C
  938     939         1     ; H-C-C-H
  940     946         1     ; H-C-C-H
  941     942         1     ; H-C-C-H
  943     944         1     ; H-C-C-H
  952     955         1     ; N-C-N-C
  952     992         1     ; N-C-C-C
  952     993         1     ; N-C-C-C
  952    1021         1     ; N-C-C-H
  952    1019         1     ; N-C-C-F
  952    1020         1     ; N-C-C-F
  952    1042         1     ; N-C-C-F
  953    1043         1     ; N-C-N-C
  953     992         1     ; N-C-C-C
  953     993         1     ; N-C-C-C
  953     957         1     ; N-C-C-C
  953    1022         1     ; N-C-C-H
  953     959         1     ; N-C-C-C
  953    1024         1     ; N-C-C-H
  953    1018         1     ; N-C-C-C
  954    1018         1     ; C-N-C-C
  954    1044         1     ; C-N-C-H
  954    1045         1     ; C-N-C-H
  954    1046         1     ; C-N-C-H
  954     956         1     ; C-N-C-C
  954     960         1     ; C-N-C-C
  954    1021         1     ; C-N-C-H
  954     994         1     ; C-C-C-C
  954    1033         1     ; C-C-C-H
  954     995         1     ; C-C-C-C
  954    1035         1     ; C-C-C-H
  955     991         1     ; C-N-C-C
  955    1017         1     ; C-N-C-C
  955    1021         1     ; C-N-C-H
  955     958         1     ; C-C-C-C
  955    1023         1     ; C-C-C-H
  955    1025         1     ; C-C-C-H
  956    1016         1     ; C-C-N-C
  956     959         1     ; C-C-C-C
  956    1024         1     ; C-C-C-H
  956     961         1     ; C-C-C-N
  957     960         1     ; C-C-C-C
  957    1025         1     ; C-C-C-H
  957     962         1     ; C-C-N-C
  957     965         1     ; C-C-N-C
  958    1022         1     ; C-C-C-H
  958    1024         1     ; C-C-C-H
  958     963         1     ; C-N-C-C
  958     986         1     ; C-N-C-O
  958     964         1     ; C-N-C-C
  958     966         1     ; C-N-C-O
  959    1023         1     ; C-C-C-H
  959     962         1     ; C-C-N-C
  959     965         1     ; C-C-N-C
  960    1016         1     ; C-C-N-C
  960    1022         1     ; C-C-C-H
  960     961         1     ; C-C-C-N
  961    1023         1     ; N-C-C-H
  961    1025         1     ; N-C-C-H
  961     967         1     ; N-C-C-C
  961     970         1     ; N-C-C-C
  962     966         1     ; C-N-C-O
  962     970         1     ; C-C-C-C
  962     968         1     ; C-C-C-C
  962    1026         1     ; C-C-C-H
  963     966         1     ; C-C-C-O
  963     969         1     ; C-C-C-C
  963    1028         1     ; C-C-C-H
  963     977         1     ; C-C-C-C
  964     986         1     ; C-C-C-O
  964     968         1     ; C-C-C-C
  964    1026         1     ; C-C-C-H
  964    1027         1     ; C-C-C-H
  965     986         1     ; C-N-C-O
  965     967         1     ; C-C-C-C
  965     969         1     ; C-C-C-C
  965    1028         1     ; C-C-C-H
  966     970         1     ; O-C-C-C
  967     986         1     ; C-C-C-O
  967     970         1     ; C-C-C-C
  967    1027         1     ; C-C-C-H
  967     971         1     ; C-C-C-C
  967     978         1     ; C-C-C-C
  967     982         1     ; C-C-C-C
  968    1028         1     ; C-C-C-H
  968     972         1     ; C-C-C-C
  968     974         1     ; C-C-C-C
  968     979         1     ; C-C-C-F
  968     980         1     ; C-C-C-F
  968     981         1     ; C-C-C-F
  968     983         1     ; C-C-C-F
  968     984         1     ; C-C-C-F
  968     985         1     ; C-C-C-F
  969    1026         1     ; C-C-C-H
  969     971         1     ; C-C-C-C
  969     978         1     ; C-C-C-C
  969     982         1     ; C-C-C-C
  970     977         1     ; C-C-C-C
  971     975         1     ; C-C-C-C
  971     987         1     ; C-C-C-C
  971    1031         1     ; C-C-C-H
  971     979         1     ; C-C-C-F
  971     980         1     ; C-C-C-F
  971     981         1     ; C-C-C-F
  971     983         1     ; C-C-C-F
  971     984         1     ; C-C-C-F
  971     985         1     ; C-C-C-F
  972     976         1     ; C-C-C-C
  972    1029         1     ; C-C-C-H
  972     978         1     ; C-C-C-C
  972     982         1     ; C-C-C-C
  972     989         1     ; C-C-C-C
  972     988         1     ; C-C-C-N
  972    1032         1     ; C-C-C-O
  973     974         1     ; C-C-C-C
  973     977         1     ; C-C-C-C
  973    1031         1     ; C-C-C-H
  973     990         1     ; C-C-C-O
  973    1104         1     ; C-C-N-C
  974    1030         1     ; C-C-C-H
  974     978         1     ; C-C-C-C
  974     982         1     ; C-C-C-C
  974     989         1     ; C-C-C-C
  975    1030         1     ; C-C-C-H
  975    1032         1     ; C-C-C-O
  975    1029         1     ; C-C-C-H
  975    1104         1     ; C-C-N-C
  976     977         1     ; C-C-C-C
  976     987         1     ; C-C-C-C
  976     988         1     ; C-C-C-N
  976     990         1     ; C-C-C-O
  977    1026         1     ; C-C-C-H
  977    1027         1     ; C-C-C-H
  977    1030         1     ; C-C-C-H
  977    1029         1     ; C-C-C-H
  978     983         1     ; C-C-C-F
  978     984         1     ; C-C-C-F
  978     985         1     ; C-C-C-F
  979     982         1     ; F-C-C-C
  980     982         1     ; F-C-C-C
  981     982         1     ; F-C-C-C
  987    1030         1     ; C-C-C-H
  987     990         1     ; C-N-C-O
  987    1103         1     ; C-N-C-C
  987    1105         1     ; C-N-C-C
  988    1102         1     ; N-C-C-C
  988    1131         1     ; N-C-C-H
  988    1106         1     ; N-C-C-C
  988    1133         1     ; N-C-C-H
  989    1031         1     ; C-C-C-H
  989    1032         1     ; C-N-C-O
  989    1103         1     ; C-N-C-C
  989    1105         1     ; C-N-C-C
  990    1104         1     ; O-C-N-C
  991    1017         1     ; C-C-N-C
  991    1043         1     ; C-C-N-C
  991    1016         1     ; C-C-N-C
  991     996         1     ; C-C-C-C
  991    1034         1     ; C-C-C-H
  991    1041         1     ; C-C-C-H
  992     995         1     ; C-C-C-C
  992    1035         1     ; C-C-C-H
  992     997         1     ; C-C-C-C
  993     994         1     ; C-C-C-C
  993    1033         1     ; C-C-C-H
  993     997         1     ; C-C-C-C
  994    1041         1     ; C-C-C-H
  994     998         1     ; C-C-C-N
  994     999         1     ; C-C-C-N
  995    1034         1     ; C-C-C-H
  995     998         1     ; C-C-C-N
  995     999         1     ; C-C-C-N
  996    1033         1     ; C-C-C-H
  996    1035         1     ; C-C-C-H
  996    1000         1     ; C-C-N-C
  996    1006         1     ; C-C-N-C
  996    1001         1     ; C-C-N-C
  996    1002         1     ; C-C-N-C
  997    1034         1     ; C-C-C-H
  997    1041         1     ; C-C-C-H
  997    1040         1     ; C-N-C-H
  997    1007         1     ; C-N-C-C
  997    1011         1     ; C-N-C-C
  997    1012         1     ; C-N-C-C
  997    1003         1     ; C-N-C-H
  997    1004         1     ; C-N-C-H
  997    1005         1     ; C-N-C-H
  998    1002         1     ; N-C-N-C
  998    1012         1     ; N-C-C-C
  998    1008         1     ; N-C-C-C
  998    1037         1     ; N-C-C-H
  998    1010         1     ; N-C-C-C
  998    1039         1     ; N-C-C-H
  999    1006         1     ; N-C-N-C
  999    1040         1     ; N-C-C-H
  999    1013         1     ; N-C-C-F
  999    1014         1     ; N-C-C-F
  999    1015         1     ; N-C-C-F
 1000    1007         1     ; C-N-C-C
 1000    1011         1     ; C-N-C-C
 1000    1002         1     ; C-C-N-C
 1000    1013         1     ; C-C-C-F
 1000    1014         1     ; C-C-C-F
 1000    1015         1     ; C-C-C-F
 1001    1003         1     ; C-N-C-H
 1001    1004         1     ; C-N-C-H
 1001    1005         1     ; C-N-C-H
 1001    1006         1     ; C-C-N-C
 1002    1012         1     ; C-N-C-C
 1006    1040         1     ; C-N-C-H
 1006    1009         1     ; C-C-C-C
 1006    1036         1     ; C-C-C-H
 1006    1038         1     ; C-C-C-H
 1007    1010         1     ; C-C-C-C
 1007    1039         1     ; C-C-C-H
 1008    1011         1     ; C-C-C-C
 1008    1038         1     ; C-C-C-H
 1009    1037         1     ; C-C-C-H
 1009    1039         1     ; C-C-C-H
 1010    1036         1     ; C-C-C-H
 1011    1037         1     ; C-C-C-H
 1012    1040         1     ; C-C-C-H
 1016    1043         1     ; C-C-N-C
 1016    1019         1     ; C-C-C-F
 1016    1020         1     ; C-C-C-F
 1016    1042         1     ; C-C-C-F
 1017    1044         1     ; C-N-C-H
 1017    1045         1     ; C-N-C-H
 1017    1046         1     ; C-N-C-H
 1018    1043         1     ; C-C-N-C
 1018    1021         1     ; C-C-C-H
 1022    1023         1     ; H-C-C-H
 1024    1025         1     ; H-C-C-H
 1027    1028         1     ; H-C-C-H
 1029    1031         1     ; H-C-C-H
 1032    1104         1     ; O-C-N-C
 1033    1034         1     ; H-C-C-H
 1035    1041         1     ; H-C-C-H
 1036    1037         1     ; H-C-C-H
 1038    1039         1     ; H-C-C-H
 1047    1050         1     ; N-C-N-C
 1047    1087         1     ; N-C-C-C
 1047    1088         1     ; N-C-C-C
 1047    1116         1     ; N-C-C-H
 1047    1114         1     ; N-C-C-F
 1047    1115         1     ; N-C-C-F
 1047    1137         1     ; N-C-C-F
 1048    1138         1     ; N-C-N-C
 1048    1087         1     ; N-C-C-C
 1048    1088         1     ; N-C-C-C
 1048    1052         1     ; N-C-C-C
 1048    1117         1     ; N-C-C-H
 1048    1054         1     ; N-C-C-C
 1048    1119         1     ; N-C-C-H
 1048    1113         1     ; N-C-C-C
 1049    1113         1     ; C-N-C-C
 1049    1139         1     ; C-N-C-H
 1049    1140         1     ; C-N-C-H
 1049    1141         1     ; C-N-C-H
 1049    1051         1     ; C-N-C-C
 1049    1055         1     ; C-N-C-C
 1049    1116         1     ; C-N-C-H
 1049    1089         1     ; C-C-C-C
 1049    1128         1     ; C-C-C-H
 1049    1090         1     ; C-C-C-C
 1049    1130         1     ; C-C-C-H
 1050    1086         1     ; C-N-C-C
 1050    1112         1     ; C-N-C-C
 1050    1116         1     ; C-N-C-H
 1050    1053         1     ; C-C-C-C
 1050    1118         1     ; C-C-C-H
 1050    1120         1     ; C-C-C-H
 1051    1111         1     ; C-C-N-C
 1051    1054         1     ; C-C-C-C
 1051    1119         1     ; C-C-C-H
 1051    1056         1     ; C-C-C-N
 1052    1055         1     ; C-C-C-C
 1052    1120         1     ; C-C-C-H
 1052    1057         1     ; C-C-N-C
 1052    1060         1     ; C-C-N-C
 1053    1117         1     ; C-C-C-H
 1053    1119         1     ; C-C-C-H
 1053    1058         1     ; C-N-C-C
 1053    1081         1     ; C-N-C-O
 1053    1059         1     ; C-N-C-C
 1053    1061         1     ; C-N-C-O
 1054    1118         1     ; C-C-C-H
 1054    1057         1     ; C-C-N-C
 1054    1060         1     ; C-C-N-C
 1055    1111         1     ; C-C-N-C
 1055    1117         1     ; C-C-C-H
 1055    1056         1     ; C-C-C-N
 1056    1118         1     ; N-C-C-H
 1056    1120         1     ; N-C-C-H
 1056    1062         1     ; N-C-C-C
 1056    1065         1     ; N-C-C-C
 1057    1061         1     ; C-N-C-O
 1057    1065         1     ; C-C-C-C
 1057    1063         1     ; C-C-C-C
 1057    1121         1     ; C-C-C-H
 1058    1061         1     ; C-C-C-O
 1058    1064         1     ; C-C-C-C
 1058    1123         1     ; C-C-C-H
 1058    1072         1     ; C-C-C-C
 1059    1081         1     ; C-C-C-O
 1059    1063         1     ; C-C-C-C
 1059    1121         1     ; C-C-C-H
 1059    1122         1     ; C-C-C-H
 1060    1081         1     ; C-N-C-O
 1060    1062         1     ; C-C-C-C
 1060    1064         1     ; C-C-C-C
 1060    1123         1     ; C-C-C-H
 1061    1065         1     ; O-C-C-C
 1062    1081         1     ; C-C-C-O
 1062    1065         1     ; C-C-C-C
 1062    1122         1     ; C-C-C-H
 1062    1066         1     ; C-C-C-C
 1062    1073         1     ; C-C-C-C
 1062    1077         1     ; C-C-C-C
 1063    1123         1     ; C-C-C-H
 1063    1067         1     ; C-C-C-C
 1063    1069         1     ; C-C-C-C
 1063    1074         1     ; C-C-C-F
 1063    1075         1     ; C-C-C-F
 1063    1076         1     ; C-C-C-F
 1063    1078         1     ; C-C-C-F
 1063    1079         1     ; C-C-C-F
 1063    1080         1     ; C-C-C-F
 1064    1121         1     ; C-C-C-H
 1064    1066         1     ; C-C-C-C
 1064    1073         1     ; C-C-C-C
 1064    1077         1     ; C-C-C-C
 1065    1072         1     ; C-C-C-C
 1066    1070         1     ; C-C-C-C
 1066    1082         1     ; C-C-C-C
 1066    1126         1     ; C-C-C-H
 1066    1074         1     ; C-C-C-F
 1066    1075         1     ; C-C-C-F
 1066    1076         1     ; C-C-C-F
 1066    1078         1     ; C-C-C-F
 1066    1079         1     ; C-C-C-F
 1066    1080         1     ; C-C-C-F
 1067    1071         1     ; C-C-C-C
 1067    1124         1     ; C-C-C-H
 1067    1073         1     ; C-C-C-C
 1067    1077         1     ; C-C-C-C
 1067    1084         1     ; C-C-C-C
 1067    1083         1     ; C-C-C-N
 1067    1127         1     ; C-C-C-O
 1068    1069         1     ; C-C-C-C
 1068    1072         1     ; C-C-C-C
 1068    1126         1     ; C-C-C-H
 1068    1085         1     ; C-C-C-O
 1068    1199         1     ; C-C-N-C
 1069    1125         1     ; C-C-C-H
 1069    1073         1     ; C-C-C-C
 1069    1077         1     ; C-C-C-C
 1069    1084         1     ; C-C-C-C
 1070    1125         1     ; C-C-C-H
 1070    1127         1     ; C-C-C-O
 1070    1124         1     ; C-C-C-H
 1070    1199         1     ; C-C-N-C
 1071    1072         1     ; C-C-C-C
 1071    1082         1     ; C-C-C-C
 1071    1083         1     ; C-C-C-N
 1071    1085         1     ; C-C-C-O
 1072    1121         1     ; C-C-C-H
 1072    1122         1     ; C-C-C-H
 1072    1125         1     ; C-C-C-H
 1072    1124         1     ; C-C-C-H
 1073    1078         1     ; C-C-C-F
 1073    1079         1     ; C-C-C-F
 1073    1080         1     ; C-C-C-F
 1074    1077         1     ; F-C-C-C
 1075    1077         1     ; F-C-C-C
 1076    1077         1     ; F-C-C-C
 1082    1125         1     ; C-C-C-H
 1082    1085         1     ; C-N-C-O
 1082    1198         1     ; C-N-C-C
 1082    1200         1     ; C-N-C-C
 1083    1197         1     ; N-C-C-C
 1083    1226         1     ; N-C-C-H
 1083    1201         1     ; N-C-C-C
 1083    1228         1     ; N-C-C-H
 1084    1126         1     ; C-C-C-H
 1084    1127         1     ; C-N-C-O
 1084    1198         1     ; C-N-C-C
 1084    1200         1     ; C-N-C-C
 1085    1199         1     ; O-C-N-C
 1086    1112         1     ; C-C-N-C
 1086    1138         1     ; C-C-N-C
 1086    1111         1     ; C-C-N-C
 1086    1091         1     ; C-C-C-C
 1086    1129         1     ; C-C-C-H
 1086    1136         1     ; C-C-C-H
 1087    1090         1     ; C-C-C-C
 1087    1130         1     ; C-C-C-H
 1087    1092         1     ; C-C-C-C
 1088    1089         1     ; C-C-C-C
 1088    1128         1     ; C-C-C-H
 1088    1092         1     ; C-C-C-C
 1089    1136         1     ; C-C-C-H
 1089    1093         1     ; C-C-C-N
 1089    1094         1     ; C-C-C-N
 1090    1129         1     ; C-C-C-H
 1090    1093         1     ; C-C-C-N
 1090    1094         1     ; C-C-C-N
 1091    1128         1     ; C-C-C-H
 1091    1130         1     ; C-C-C-H
 1091    1095         1     ; C-C-N-C
 1091    1101         1     ; C-C-N-C
 1091    1096         1     ; C-C-N-C
 1091    1097         1     ; C-C-N-C
 1092    1129         1     ; C-C-C-H
 1092    1136         1     ; C-C-C-H
 1092    1135         1     ; C-N-C-H
 1092    1102         1     ; C-N-C-C
 1092    1106         1     ; C-N-C-C
 1092    1107         1     ; C-N-C-C
 1092    1098         1     ; C-N-C-H
 1092    1099         1     ; C-N-C-H
 1092    1100         1     ; C-N-C-H
 1093    1097         1     ; N-C-N-C
 1093    1107         1     ; N-C-C-C
 1093    1103         1     ; N-C-C-C
 1093    1132         1     ; N-C-C-H
 1093    1105         1     ; N-C-C-C
 1093    1134         1     ; N-C-C-H
 1094    1101         1     ; N-C-N-C
 1094    1135         1     ; N-C-C-H
 1094    1108         1     ; N-C-C-F
 1094    1109         1     ; N-C-C-F
 1094    1110         1     ; N-C-C-F
 1095    1102         1     ; C-N-C-C
 1095    1106         1     ; C-N-C-C
 1095    1097         1     ; C-C-N-C
 1095    1108         1     ; C-C-C-F
 1095    1109         1     ; C-C-C-F
 1095    1110         1     ; C-C-C-F
 1096    1098         1     ; C-N-C-H
 1096    1099         1     ; C-N-C-H
 1096    1100         1     ; C-N-C-H
 1096    1101         1     ; C-C-N-C
 1097    1107         1     ; C-N-C-C
 1101    1135         1     ; C-N-C-H
 1101    1104         1     ; C-C-C-C
 1101    1131         1     ; C-C-C-H
 1101    1133         1     ; C-C-C-H
 1102    1105         1     ; C-C-C-C
 1102    1134         1     ; C-C-C-H
 1103    1106         1     ; C-C-C-C
 1103    1133         1     ; C-C-C-H
 1104    1132         1     ; C-C-C-H
 1104    1134         1     ; C-C-C-H
 1105    1131         1     ; C-C-C-H
 1106    1132         1     ; C-C-C-H
 1107    1135         1     ; C-C-C-H
 1111    1138         1     ; C-C-N-C
 1111    1114         1     ; C-C-C-F
 1111    1115         1     ; C-C-C-F
 1111    1137         1     ; C-C-C-F
 1112    1139         1     ; C-N-C-H
 1112    1140         1     ; C-N-C-H
 1112    1141         1     ; C-N-C-H
 1113    1138         1     ; C-C-N-C
 1113    1116         1     ; C-C-C-H
 1117    1118         1     ; H-C-C-H
 1119    1120         1     ; H-C-C-H
 1122    1123         1     ; H-C-C-H
 1124    1126         1     ; H-C-C-H
 1127    1199         1     ; O-C-N-C
 1128    1129         1     ; H-C-C-H
 1130    1136         1     ; H-C-C-H
 1131    1132         1     ; H-C-C-H
 1133    1134         1     ; H-C-C-H
 1142    1145         1     ; N-C-N-C
 1142    1182         1     ; N-C-C-C
 1142    1183         1     ; N-C-C-C
 1142    1211         1     ; N-C-C-H
 1142    1209         1     ; N-C-C-F
 1142    1210         1     ; N-C-C-F
 1142    1232         1     ; N-C-C-F
 1143    1233         1     ; N-C-N-C
 1143    1182         1     ; N-C-C-C
 1143    1183         1     ; N-C-C-C
 1143    1147         1     ; N-C-C-C
 1143    1212         1     ; N-C-C-H
 1143    1149         1     ; N-C-C-C
 1143    1214         1     ; N-C-C-H
 1143    1208         1     ; N-C-C-C
 1144    1208         1     ; C-N-C-C
 1144    1234         1     ; C-N-C-H
 1144    1235         1     ; C-N-C-H
 1144    1236         1     ; C-N-C-H
 1144    1146         1     ; C-N-C-C
 1144    1150         1     ; C-N-C-C
 1144    1211         1     ; C-N-C-H
 1144    1184         1     ; C-C-C-C
 1144    1223         1     ; C-C-C-H
 1144    1185         1     ; C-C-C-C
 1144    1225         1     ; C-C-C-H
 1145    1181         1     ; C-N-C-C
 1145    1207         1     ; C-N-C-C
 1145    1211         1     ; C-N-C-H
 1145    1148         1     ; C-C-C-C
 1145    1213         1     ; C-C-C-H
 1145    1215         1     ; C-C-C-H
 1146    1206         1     ; C-C-N-C
 1146    1149         1     ; C-C-C-C
 1146    1214         1     ; C-C-C-H
 1146    1151         1     ; C-C-C-N
 1147    1150         1     ; C-C-C-C
 1147    1215         1     ; C-C-C-H
 1147    1152         1     ; C-C-N-C
 1147    1155         1     ; C-C-N-C
 1148    1212         1     ; C-C-C-H
 1148    1214         1     ; C-C-C-H
 1148    1153         1     ; C-N-C-C
 1148    1176         1     ; C-N-C-O
 1148    1154         1     ; C-N-C-C
 1148    1156         1     ; C-N-C-O
 1149    1213         1     ; C-C-C-H
 1149    1152         1     ; C-C-N-C
 1149    1155         1     ; C-C-N-C
 1150    1206         1     ; C-C-N-C
 1150    1212         1     ; C-C-C-H
 1150    1151         1     ; C-C-C-N
 1151    1213         1     ; N-C-C-H
 1151    1215         1     ; N-C-C-H
 1151    1157         1     ; N-C-C-C
 1151    1160         1     ; N-C-C-C
 1152    1156         1     ; C-N-C-O
 1152    1160         1     ; C-C-C-C
 1152    1158         1     ; C-C-C-C
 1152    1216         1     ; C-C-C-H
 1153    1156         1     ; C-C-C-O
 1153    1159         1     ; C-C-C-C
 1153    1218         1     ; C-C-C-H
 1153    1167         1     ; C-C-C-C
 1154    1176         1     ; C-C-C-O
 1154    1158         1     ; C-C-C-C
 1154    1216         1     ; C-C-C-H
 1154    1217         1     ; C-C-C-H
 1155    1176         1     ; C-N-C-O
 1155    1157         1     ; C-C-C-C
 1155    1159         1     ; C-C-C-C
 1155    1218         1     ; C-C-C-H
 1156    1160         1     ; O-C-C-C
 1157    1176         1     ; C-C-C-O
 1157    1160         1     ; C-C-C-C
 1157    1217         1     ; C-C-C-H
 1157    1161         1     ; C-C-C-C
 1157    1168         1     ; C-C-C-C
 1157    1172         1     ; C-C-C-C
 1158    1218         1     ; C-C-C-H
 1158    1162         1     ; C-C-C-C
 1158    1164         1     ; C-C-C-C
 1158    1169         1     ; C-C-C-F
 1158    1170         1     ; C-C-C-F
 1158    1171         1     ; C-C-C-F
 1158    1173         1     ; C-C-C-F
 1158    1174         1     ; C-C-C-F
 1158    1175         1     ; C-C-C-F
 1159    1216         1     ; C-C-C-H
 1159    1161         1     ; C-C-C-C
 1159    1168         1     ; C-C-C-C
 1159    1172         1     ; C-C-C-C
 1160    1167         1     ; C-C-C-C
 1161    1165         1     ; C-C-C-C
 1161    1177         1     ; C-C-C-C
 1161    1221         1     ; C-C-C-H
 1161    1169         1     ; C-C-C-F
 1161    1170         1     ; C-C-C-F
 1161    1171         1     ; C-C-C-F
 1161    1173         1     ; C-C-C-F
 1161    1174         1     ; C-C-C-F
 1161    1175         1     ; C-C-C-F
 1162    1166         1     ; C-C-C-C
 1162    1219         1     ; C-C-C-H
 1162    1168         1     ; C-C-C-C
 1162    1172         1     ; C-C-C-C
 1162    1179         1     ; C-C-C-C
 1162    1178         1     ; C-C-C-N
 1162    1222         1     ; C-C-C-O
 1163    1164         1     ; C-C-C-C
 1163    1167         1     ; C-C-C-C
 1163    1221         1     ; C-C-C-H
 1163    1180         1     ; C-C-C-O
 1163    1294         1     ; C-C-N-C
 1164    1220         1     ; C-C-C-H
 1164    1168         1     ; C-C-C-C
 1164    1172         1     ; C-C-C-C
 1164    1179         1     ; C-C-C-C
 1165    1220         1     ; C-C-C-H
 1165    1222         1     ; C-C-C-O
 1165    1219         1     ; C-C-C-H
 1165    1294         1     ; C-C-N-C
 1166    1167         1     ; C-C-C-C
 1166    1177         1     ; C-C-C-C
 1166    1178         1     ; C-C-C-N
 1166    1180         1     ; C-C-C-O
 1167    1216         1     ; C-C-C-H
 1167    1217         1     ; C-C-C-H
 1167    1220         1     ; C-C-C-H
 1167    1219         1     ; C-C-C-H
 1168    1173         1     ; C-C-C-F
 1168    1174         1     ; C-C-C-F
 1168    1175         1     ; C-C-C-F
 1169    1172         1     ; F-C-C-C
 1170    1172         1     ; F-C-C-C
 1171    1172         1     ; F-C-C-C
 1177    1220         1     ; C-C-C-H
 1177    1180         1     ; C-N-C-O
 1177    1293         1     ; C-N-C-C
 1177    1295         1     ; C-N-C-C
 1178    1292         1     ; N-C-C-C
 1178    1321         1     ; N-C-C-H
 1178    1296         1     ; N-C-C-C
 1178    1323         1     ; N-C-C-H
 1179    1221         1     ; C-C-C-H
 1179    1222         1     ; C-N-C-O
 1179    1293         1     ; C-N-C-C
 1179    1295         1     ; C-N-C-C
 1180    1294         1     ; O-C-N-C
 1181    1207         1     ; C-C-N-C
 1181    1233         1     ; C-C-N-C
 1181    1206         1     ; C-C-N-C
 1181    1186         1     ; C-C-C-C
 1181    1224         1     ; C-C-C-H
 1181    1231         1     ; C-C-C-H
 1182    1185         1     ; C-C-C-C
 1182    1225         1     ; C-C-C-H
 1182    1187         1     ; C-C-C-C
 1183    1184         1     ; C-C-C-C
 1183    1223         1     ; C-C-C-H
 1183    1187         1     ; C-C-C-C
 1184    1231         1     ; C-C-C-H
 1184    1188         1     ; C-C-C-N
 1184    1189         1     ; C-C-C-N
 1185    1224         1     ; C-C-C-H
 1185    1188         1     ; C-C-C-N
 1185    1189         1     ; C-C-C-N
 1186    1223         1     ; C-C-C-H
 1186    1225         1     ; C-C-C-H
 1186    1190         1     ; C-C-N-C
 1186    1196         1     ; C-C-N-C
 1186    1191         1     ; C-C-N-C
 1186    1192         1     ; C-C-N-C
 1187    1224         1     ; C-C-C-H
 1187    1231         1     ; C-C-C-H
 1187    1230         1     ; C-N-C-H
 1187    1197         1     ; C-N-C-C
 1187    1201         1     ; C-N-C-C
 1187    1202         1     ; C-N-C-C
 1187    1193         1     ; C-N-C-H
 1187    1194         1     ; C-N-C-H
 1187    1195         1     ; C-N-C-H
 1188    1192         1     ; N-C-N-C
 1188    1202         1     ; N-C-C-C
 1188    1198         1     ; N-C-C-C
 1188    1227         1     ; N-C-C-H
 1188    1200         1     ; N-C-C-C
 1188    1229         1     ; N-C-C-H
 1189    1196         1     ; N-C-N-C
 1189    1230         1     ; N-C-C-H
 1189    1203         1     ; N-C-C-F
 1189    1204         1     ; N-C-C-F
 1189    1205         1     ; N-C-C-F
 1190    1197         1     ; C-N-C-C
 1190    1201         1     ; C-N-C-C
 1190    1192         1     ; C-C-N-C
 1190    1203         1     ; C-C-C-F
 1190    1204         1     ; C-C-C-F
 1190    1205         1     ; C-C-C-F
 1191    1193         1     ; C-N-C-H
 1191    1194         1     ; C-N-C-H
 1191    1195         1     ; C-N-C-H
 1191    1196         1     ; C-C-N-C
 1192    1202         1     ; C-N-C-C
 1196    1230         1     ; C-N-C-H
 1196    1199         1     ; C-C-C-C
 1196    1226         1     ; C-C-C-H
 1196    1228         1     ; C-C-C-H
 1197    1200         1     ; C-C-C-C
 1197    1229         1     ; C-C-C-H
 1198    1201         1     ; C-C-C-C
 1198    1228         1     ; C-C-C-H
 1199    1227         1     ; C-C-C-H
 1199    1229         1     ; C-C-C-H
 1200    1226         1     ; C-C-C-H
 1201    1227         1     ; C-C-C-H
 1202    1230         1     ; C-C-C-H
 1206    1233         1     ; C-C-N-C
 1206    1209         1     ; C-C-C-F
 1206    1210         1     ; C-C-C-F
 1206    1232         1     ; C-C-C-F
 1207    1234         1     ; C-N-C-H
 1207    1235         1     ; C-N-C-H
 1207    1236         1     ; C-N-C-H
 1208    1233         1     ; C-C-N-C
 1208    1211         1     ; C-C-C-H
 1212    1213         1     ; H-C-C-H
 1214    1215         1     ; H-C-C-H
 1217    1218         1     ; H-C-C-H
 1219    1221         1     ; H-C-C-H
 1222    1294         1     ; O-C-N-C
 1223    1224         1     ; H-C-C-H
 1225    1231         1     ; H-C-C-H
 1226    1227         1     ; H-C-C-H
 1228    1229         1     ; H-C-C-H
 1237    1240         1     ; N-C-N-C
 1237    1277         1     ; N-C-C-C
 1237    1278         1     ; N-C-C-C
 1237    1306         1     ; N-C-C-H
 1237    1304         1     ; N-C-C-F
 1237    1305         1     ; N-C-C-F
 1237    1327         1     ; N-C-C-F
 1238    1328         1     ; N-C-N-C
 1238    1277         1     ; N-C-C-C
 1238    1278         1     ; N-C-C-C
 1238    1242         1     ; N-C-C-C
 1238    1307         1     ; N-C-C-H
 1238    1244         1     ; N-C-C-C
 1238    1309         1     ; N-C-C-H
 1238    1303         1     ; N-C-C-C
 1239    1303         1     ; C-N-C-C
 1239    1329         1     ; C-N-C-H
 1239    1330         1     ; C-N-C-H
 1239    1331         1     ; C-N-C-H
 1239    1241         1     ; C-N-C-C
 1239    1245         1     ; C-N-C-C
 1239    1306         1     ; C-N-C-H
 1239    1279         1     ; C-C-C-C
 1239    1318         1     ; C-C-C-H
 1239    1280         1     ; C-C-C-C
 1239    1320         1     ; C-C-C-H
 1240    1276         1     ; C-N-C-C
 1240    1302         1     ; C-N-C-C
 1240    1306         1     ; C-N-C-H
 1240    1243         1     ; C-C-C-C
 1240    1308         1     ; C-C-C-H
 1240    1310         1     ; C-C-C-H
 1241    1301         1     ; C-C-N-C
 1241    1244         1     ; C-C-C-C
 1241    1309         1     ; C-C-C-H
 1241    1246         1     ; C-C-C-N
 1242    1245         1     ; C-C-C-C
 1242    1310         1     ; C-C-C-H
 1242    1247         1     ; C-C-N-C
 1242    1250         1     ; C-C-N-C
 1243    1307         1     ; C-C-C-H
 1243    1309         1     ; C-C-C-H
 1243    1248         1     ; C-N-C-C
 1243    1271         1     ; C-N-C-O
 1243    1249         1     ; C-N-C-C
 1243    1251         1     ; C-N-C-O
 1244    1308         1     ; C-C-C-H
 1244    1247         1     ; C-C-N-C
 1244    1250         1     ; C-C-N-C
 1245    1301         1     ; C-C-N-C
 1245    1307         1     ; C-C-C-H
 1245    1246         1     ; C-C-C-N
 1246    1308         1     ; N-C-C-H
 1246    1310         1     ; N-C-C-H
 1246    1252         1     ; N-C-C-C
 1246    1255         1     ; N-C-C-C
 1247    1251         1     ; C-N-C-O
 1247    1255         1     ; C-C-C-C
 1247    1253         1     ; C-C-C-C
 1247    1311         1     ; C-C-C-H
 1248    1251         1     ; C-C-C-O
 1248    1254         1     ; C-C-C-C
 1248    1313         1     ; C-C-C-H
 1248    1262         1     ; C-C-C-C
 1249    1271         1     ; C-C-C-O
 1249    1253         1     ; C-C-C-C
 1249    1311         1     ; C-C-C-H
 1249    1312         1     ; C-C-C-H
 1250    1271         1     ; C-N-C-O
 1250    1252         1     ; C-C-C-C
 1250    1254         1     ; C-C-C-C
 1250    1313         1     ; C-C-C-H
 1251    1255         1     ; O-C-C-C
 1252    1271         1     ; C-C-C-O
 1252    1255         1     ; C-C-C-C
 1252    1312         1     ; C-C-C-H
 1252    1256         1     ; C-C-C-C
 1252    1263         1     ; C-C-C-C
 1252    1267         1     ; C-C-C-C
 1253    1313         1     ; C-C-C-H
 1253    1257         1     ; C-C-C-C
 1253    1259         1     ; C-C-C-C
 1253    1264         1     ; C-C-C-F
 1253    1265         1     ; C-C-C-F
 1253    1266         1     ; C-C-C-F
 1253    1268         1     ; C-C-C-F
 1253    1269         1     ; C-C-C-F
 1253    1270         1     ; C-C-C-F
 1254    1311         1     ; C-C-C-H
 1254    1256         1     ; C-C-C-C
 1254    1263         1     ; C-C-C-C
 1254    1267         1     ; C-C-C-C
 1255    1262         1     ; C-C-C-C
 1256    1260         1     ; C-C-C-C
 1256    1272         1     ; C-C-C-C
 1256    1316         1     ; C-C-C-H
 1256    1264         1     ; C-C-C-F
 1256    1265         1     ; C-C-C-F
 1256    1266         1     ; C-C-C-F
 1256    1268         1     ; C-C-C-F
 1256    1269         1     ; C-C-C-F
 1256    1270         1     ; C-C-C-F
 1257    1261         1     ; C-C-C-C
 1257    1314         1     ; C-C-C-H
 1257    1263         1     ; C-C-C-C
 1257    1267         1     ; C-C-C-C
 1257    1274         1     ; C-C-C-C
 1257    1273         1     ; C-C-C-N
 1257    1317         1     ; C-C-C-O
 1258    1259         1     ; C-C-C-C
 1258    1262         1     ; C-C-C-C
 1258    1316         1     ; C-C-C-H
 1258    1275         1     ; C-C-C-O
 1258    1389         1     ; C-C-N-C
 1259    1315         1     ; C-C-C-H
 1259    1263         1     ; C-C-C-C
 1259    1267         1     ; C-C-C-C
 1259    1274         1     ; C-C-C-C
 1260    1315         1     ; C-C-C-H
 1260    1317         1     ; C-C-C-O
 1260    1314         1     ; C-C-C-H
 1260    1389         1     ; C-C-N-C
 1261    1262         1     ; C-C-C-C
 1261    1272         1     ; C-C-C-C
 1261    1273         1     ; C-C-C-N
 1261    1275         1     ; C-C-C-O
 1262    1311         1     ; C-C-C-H
 1262    1312         1     ; C-C-C-H
 1262    1315         1     ; C-C-C-H
 1262    1314         1     ; C-C-C-H
 1263    1268         1     ; C-C-C-F
 1263    1269         1     ; C-C-C-F
 1263    1270         1     ; C-C-C-F
 1264    1267         1     ; F-C-C-C
 1265    1267         1     ; F-C-C-C
 1266    1267         1     ; F-C-C-C
 1272    1315         1     ; C-C-C-H
 1272    1275         1     ; C-N-C-O
 1272    1388         1     ; C-N-C-C
 1272    1390         1     ; C-N-C-C
 1273    1387         1     ; N-C-C-C
 1273    1416         1     ; N-C-C-H
 1273    1391         1     ; N-C-C-C
 1273    1418         1     ; N-C-C-H
 1274    1316         1     ; C-C-C-H
 1274    1317         1     ; C-N-C-O
 1274    1388         1     ; C-N-C-C
 1274    1390         1     ; C-N-C-C
 1275    1389         1     ; O-C-N-C
 1276    1302         1     ; C-C-N-C
 1276    1328         1     ; C-C-N-C
 1276    1301         1     ; C-C-N-C
 1276    1281         1     ; C-C-C-C
 1276    1319         1     ; C-C-C-H
 1276    1326         1     ; C-C-C-H
 1277    1280         1     ; C-C-C-C
 1277    1320         1     ; C-C-C-H
 1277    1282         1     ; C-C-C-C
 1278    1279         1     ; C-C-C-C
 1278    1318         1     ; C-C-C-H
 1278    1282         1     ; C-C-C-C
 1279    1326         1     ; C-C-C-H
 1279    1283         1     ; C-C-C-N
 1279    1284         1     ; C-C-C-N
 1280    1319         1     ; C-C-C-H
 1280    1283         1     ; C-C-C-N
 1280    1284         1     ; C-C-C-N
 1281    1318         1     ; C-C-C-H
 1281    1320         1     ; C-C-C-H
 1281    1285         1     ; C-C-N-C
 1281    1291         1     ; C-C-N-C
 1281    1286         1     ; C-C-N-C
 1281    1287         1     ; C-C-N-C
 1282    1319         1     ; C-C-C-H
 1282    1326         1     ; C-C-C-H
 1282    1325         1     ; C-N-C-H
 1282    1292         1     ; C-N-C-C
 1282    1296         1     ; C-N-C-C
 1282    1297         1     ; C-N-C-C
 1282    1288         1     ; C-N-C-H
 1282    1289         1     ; C-N-C-H
 1282    1290         1     ; C-N-C-H
 1283    1287         1     ; N-C-N-C
 1283    1297         1     ; N-C-C-C
 1283    1293         1     ; N-C-C-C
 1283    1322         1     ; N-C-C-H
 1283    1295         1     ; N-C-C-C
 1283    1324         1     ; N-C-C-H
 1284    1291         1     ; N-C-N-C
 1284    1325         1     ; N-C-C-H
 1284    1298         1     ; N-C-C-F
 1284    1299         1     ; N-C-C-F
 1284    1300         1     ; N-C-C-F
 1285    1292         1     ; C-N-C-C
 1285    1296         1     ; C-N-C-C
 1285    1287         1     ; C-C-N-C
 1285    1298         1     ; C-C-C-F
 1285    1299         1     ; C-C-C-F
 1285    1300         1     ; C-C-C-F
 1286    1288         1     ; C-N-C-H
 1286    1289         1     ; C-N-C-H
 1286    1290         1     ; C-N-C-H
 1286    1291         1     ; C-C-N-C
 1287    1297         1     ; C-N-C-C
 1291    1325         1     ; C-N-C-H
 1291    1294         1     ; C-C-C-C
 1291    1321         1     ; C-C-C-H
 1291    1323         1     ; C-C-C-H
 1292    1295         1     ; C-C-C-C
 1292    1324         1     ; C-C-C-H
 1293    1296         1     ; C-C-C-C
 1293    1323         1     ; C-C-C-H
 1294    1322         1     ; C-C-C-H
 1294    1324         1     ; C-C-C-H
 1295    1321         1     ; C-C-C-H
 1296    1322         1     ; C-C-C-H
 1297    1325         1     ; C-C-C-H
 1301    1328         1     ; C-C-N-C
 1301    1304         1     ; C-C-C-F
 1301    1305         1     ; C-C-C-F
 1301    1327         1     ; C-C-C-F
 1302    1329         1     ; C-N-C-H
 1302    1330         1     ; C-N-C-H
 1302    1331         1     ; C-N-C-H
 1303    1328         1     ; C-C-N-C
 1303    1306         1     ; C-C-C-H
 1307    1308         1     ; H-C-C-H
 1309    1310         1     ; H-C-C-H
 1312    1313         1     ; H-C-C-H
 1314    1316         1     ; H-C-C-H
 1317    1389         1     ; O-C-N-C
 1318    1319         1     ; H-C-C-H
 1320    1326         1     ; H-C-C-H
 1321    1322         1     ; H-C-C-H
 1323    1324         1     ; H-C-C-H
 1332    1335         1     ; N-C-N-C
 1332    1372         1     ; N-C-C-C
 1332    1373         1     ; N-C-C-C
 1332    1401         1     ; N-C-C-H
 1332    1399         1     ; N-C-C-F
 1332    1400         1     ; N-C-C-F
 1332    1422         1     ; N-C-C-F
 1333    1423         1     ; N-C-N-C
 1333    1372         1     ; N-C-C-C
 1333    1373         1     ; N-C-C-C
 1333    1337         1     ; N-C-C-C
 1333    1402         1     ; N-C-C-H
 1333    1339         1     ; N-C-C-C
 1333    1404         1     ; N-C-C-H
 1333    1398         1     ; N-C-C-C
 1334    1398         1     ; C-N-C-C
 1334    1424         1     ; C-N-C-H
 1334    1425         1     ; C-N-C-H
 1334    1426         1     ; C-N-C-H
 1334    1336         1     ; C-N-C-C
 1334    1340         1     ; C-N-C-C
 1334    1401         1     ; C-N-C-H
 1334    1374         1     ; C-C-C-C
 1334    1413         1     ; C-C-C-H
 1334    1375         1     ; C-C-C-C
 1334    1415         1     ; C-C-C-H
 1335    1371         1     ; C-N-C-C
 1335    1397         1     ; C-N-C-C
 1335    1401         1     ; C-N-C-H
 1335    1338         1     ; C-C-C-C
 1335    1403         1     ; C-C-C-H
 1335    1405         1     ; C-C-C-H
 1336    1396         1     ; C-C-N-C
 1336    1339         1     ; C-C-C-C
 1336    1404         1     ; C-C-C-H
 1336    1341         1     ; C-C-C-N
 1337    1340         1     ; C-C-C-C
 1337    1405         1     ; C-C-C-H
 1337    1342         1     ; C-C-N-C
 1337    1345         1     ; C-C-N-C
 1338    1402         1     ; C-C-C-H
 1338    1404         1     ; C-C-C-H
 1338    1343         1     ; C-N-C-C
 1338    1366         1     ; C-N-C-O
 1338    1344         1     ; C-N-C-C
 1338    1346         1     ; C-N-C-O
 1339    1403         1     ; C-C-C-H
 1339    1342         1     ; C-C-N-C
 1339    1345         1     ; C-C-N-C
 1340    1396         1     ; C-C-N-C
 1340    1402         1     ; C-C-C-H
 1340    1341         1     ; C-C-C-N
 1341    1403         1     ; N-C-C-H
 1341    1405         1     ; N-C-C-H
 1341    1347         1     ; N-C-C-C
 1341    1350         1     ; N-C-C-C
 1342    1346         1     ; C-N-C-O
 1342    1350         1     ; C-C-C-C
 1342    1348         1     ; C-C-C-C
 1342    1406         1     ; C-C-C-H
 1343    1346         1     ; C-C-C-O
 1343    1349         1     ; C-C-C-C
 1343    1408         1     ; C-C-C-H
 1343    1357         1     ; C-C-C-C
 1344    1366         1     ; C-C-C-O
 1344    1348         1     ; C-C-C-C
 1344    1406         1     ; C-C-C-H
 1344    1407         1     ; C-C-C-H
 1345    1366         1     ; C-N-C-O
 1345    1347         1     ; C-C-C-C
 1345    1349         1     ; C-C-C-C
 1345    1408         1     ; C-C-C-H
 1346    1350         1     ; O-C-C-C
 1347    1366         1     ; C-C-C-O
 1347    1350         1     ; C-C-C-C
 1347    1407         1     ; C-C-C-H
 1347    1351         1     ; C-C-C-C
 1347    1358         1     ; C-C-C-C
 1347    1362         1     ; C-C-C-C
 1348    1408         1     ; C-C-C-H
 1348    1352         1     ; C-C-C-C
 1348    1354         1     ; C-C-C-C
 1348    1359         1     ; C-C-C-F
 1348    1360         1     ; C-C-C-F
 1348    1361         1     ; C-C-C-F
 1348    1363         1     ; C-C-C-F
 1348    1364         1     ; C-C-C-F
 1348    1365         1     ; C-C-C-F
 1349    1406         1     ; C-C-C-H
 1349    1351         1     ; C-C-C-C
 1349    1358         1     ; C-C-C-C
 1349    1362         1     ; C-C-C-C
 1350    1357         1     ; C-C-C-C
 1351    1355         1     ; C-C-C-C
 1351    1367         1     ; C-C-C-C
 1351    1411         1     ; C-C-C-H
 1351    1359         1     ; C-C-C-F
 1351    1360         1     ; C-C-C-F
 1351    1361         1     ; C-C-C-F
 1351    1363         1     ; C-C-C-F
 1351    1364         1     ; C-C-C-F
 1351    1365         1     ; C-C-C-F
 1352    1356         1     ; C-C-C-C
 1352    1409         1     ; C-C-C-H
 1352    1358         1     ; C-C-C-C
 1352    1362         1     ; C-C-C-C
 1352    1369         1     ; C-C-C-C
 1352    1368         1     ; C-C-C-N
 1352    1412         1     ; C-C-C-O
 1353    1354         1     ; C-C-C-C
 1353    1357         1     ; C-C-C-C
 1353    1411         1     ; C-C-C-H
 1353    1370         1     ; C-C-C-O
 1353    1484         1     ; C-C-N-C
 1354    1410         1     ; C-C-C-H
 1354    1358         1     ; C-C-C-C
 1354    1362         1     ; C-C-C-C
 1354    1369         1     ; C-C-C-C
 1355    1410         1     ; C-C-C-H
 1355    1412         1     ; C-C-C-O
 1355    1409         1     ; C-C-C-H
 1355    1484         1     ; C-C-N-C
 1356    1357         1     ; C-C-C-C
 1356    1367         1     ; C-C-C-C
 1356    1368         1     ; C-C-C-N
 1356    1370         1     ; C-C-C-O
 1357    1406         1     ; C-C-C-H
 1357    1407         1     ; C-C-C-H
 1357    1410         1     ; C-C-C-H
 1357    1409         1     ; C-C-C-H
 1358    1363         1     ; C-C-C-F
 1358    1364         1     ; C-C-C-F
 1358    1365         1     ; C-C-C-F
 1359    1362         1     ; F-C-C-C
 1360    1362         1     ; F-C-C-C
 1361    1362         1     ; F-C-C-C
 1367    1410         1     ; C-C-C-H
 1367    1370         1     ; C-N-C-O
 1367    1483         1     ; C-N-C-C
 1367    1485         1     ; C-N-C-C
 1368    1482         1     ; N-C-C-C
 1368    1511         1     ; N-C-C-H
 1368    1486         1     ; N-C-C-C
 1368    1513         1     ; N-C-C-H
 1369    1411         1     ; C-C-C-H
 1369    1412         1     ; C-N-C-O
 1369    1483         1     ; C-N-C-C
 1369    1485         1     ; C-N-C-C
 1370    1484         1     ; O-C-N-C
 1371    1397         1     ; C-C-N-C
 1371    1423         1     ; C-C-N-C
 1371    1396         1     ; C-C-N-C
 1371    1376         1     ; C-C-C-C
 1371    1414         1     ; C-C-C-H
 1371    1421         1     ; C-C-C-H
 1372    1375         1     ; C-C-C-C
 1372    1415         1     ; C-C-C-H
 1372    1377         1     ; C-C-C-C
 1373    1374         1     ; C-C-C-C
 1373    1413         1     ; C-C-C-H
 1373    1377         1     ; C-C-C-C
 1374    1421         1     ; C-C-C-H
 1374    1378         1     ; C-C-C-N
 1374    1379         1     ; C-C-C-N
 1375    1414         1     ; C-C-C-H
 1375    1378         1     ; C-C-C-N
 1375    1379         1     ; C-C-C-N
 1376    1413         1     ; C-C-C-H
 1376    1415         1     ; C-C-C-H
 1376    1380         1     ; C-C-N-C
 1376    1386         1     ; C-C-N-C
 1376    1381         1     ; C-C-N-C
 1376    1382         1     ; C-C-N-C
 1377    1414         1     ; C-C-C-H
 1377    1421         1     ; C-C-C-H
 1377    1420         1     ; C-N-C-H
 1377    1387         1     ; C-N-C-C
 1377    1391         1     ; C-N-C-C
 1377    1392         1     ; C-N-C-C
 1377    1383         1     ; C-N-C-H
 1377    1384         1     ; C-N-C-H
 1377    1385         1     ; C-N-C-H
 1378    1382         1     ; N-C-N-C
 1378    1392         1     ; N-C-C-C
 1378    1388         1     ; N-C-C-C
 1378    1417         1     ; N-C-C-H
 1378    1390         1     ; N-C-C-C
 1378    1419         1     ; N-C-C-H
 1379    1386         1     ; N-C-N-C
 1379    1420         1     ; N-C-C-H
 1379    1393         1     ; N-C-C-F
 1379    1394         1     ; N-C-C-F
 1379    1395         1     ; N-C-C-F
 1380    1387         1     ; C-N-C-C
 1380    1391         1     ; C-N-C-C
 1380    1382         1     ; C-C-N-C
 1380    1393         1     ; C-C-C-F
 1380    1394         1     ; C-C-C-F
 1380    1395         1     ; C-C-C-F
 1381    1383         1     ; C-N-C-H
 1381    1384         1     ; C-N-C-H
 1381    1385         1     ; C-N-C-H
 1381    1386         1     ; C-C-N-C
 1382    1392         1     ; C-N-C-C
 1386    1420         1     ; C-N-C-H
 1386    1389         1     ; C-C-C-C
 1386    1416         1     ; C-C-C-H
 1386    1418         1     ; C-C-C-H
 1387    1390         1     ; C-C-C-C
 1387    1419         1     ; C-C-C-H
 1388    1391         1     ; C-C-C-C
 1388    1418         1     ; C-C-C-H
 1389    1417         1     ; C-C-C-H
 1389    1419         1     ; C-C-C-H
 1390    1416         1     ; C-C-C-H
 1391    1417         1     ; C-C-C-H
 1392    1420         1     ; C-C-C-H
 1396    1423         1     ; C-C-N-C
 1396    1399         1     ; C-C-C-F
 1396    1400         1     ; C-C-C-F
 1396    1422         1     ; C-C-C-F
 1397    1424         1     ; C-N-C-H
 1397    1425         1     ; C-N-C-H
 1397    1426         1     ; C-N-C-H
 1398    1423         1     ; C-C-N-C
 1398    1401         1     ; C-C-C-H
 1402    1403         1     ; H-C-C-H
 1404    1405         1     ; H-C-C-H
 1407    1408         1     ; H-C-C-H
 1409    1411         1     ; H-C-C-H
 1412    1484         1     ; O-C-N-C
 1413    1414         1     ; H-C-C-H
 1415    1421         1     ; H-C-C-H
 1416    1417         1     ; H-C-C-H
 1418    1419         1     ; H-C-C-H
 1427    1430         1     ; N-C-N-C
 1427    1467         1     ; N-C-C-C
 1427    1468         1     ; N-C-C-C
 1427    1496         1     ; N-C-C-H
 1427    1494         1     ; N-C-C-F
 1427    1495         1     ; N-C-C-F
 1427    1517         1     ; N-C-C-F
 1428    1518         1     ; N-C-N-C
 1428    1467         1     ; N-C-C-C
 1428    1468         1     ; N-C-C-C
 1428    1432         1     ; N-C-C-C
 1428    1497         1     ; N-C-C-H
 1428    1434         1     ; N-C-C-C
 1428    1499         1     ; N-C-C-H
 1428    1493         1     ; N-C-C-C
 1429    1493         1     ; C-N-C-C
 1429    1519         1     ; C-N-C-H
 1429    1520         1     ; C-N-C-H
 1429    1521         1     ; C-N-C-H
 1429    1431         1     ; C-N-C-C
 1429    1435         1     ; C-N-C-C
 1429    1496         1     ; C-N-C-H
 1429    1469         1     ; C-C-C-C
 1429    1508         1     ; C-C-C-H
 1429    1470         1     ; C-C-C-C
 1429    1510         1     ; C-C-C-H
 1430    1466         1     ; C-N-C-C
 1430    1492         1     ; C-N-C-C
 1430    1496         1     ; C-N-C-H
 1430    1433         1     ; C-C-C-C
 1430    1498         1     ; C-C-C-H
 1430    1500         1     ; C-C-C-H
 1431    1491         1     ; C-C-N-C
 1431    1434         1     ; C-C-C-C
 1431    1499         1     ; C-C-C-H
 1431    1436         1     ; C-C-C-N
 1432    1435         1     ; C-C-C-C
 1432    1500         1     ; C-C-C-H
 1432    1437         1     ; C-C-N-C
 1432    1440         1     ; C-C-N-C
 1433    1497         1     ; C-C-C-H
 1433    1499         1     ; C-C-C-H
 1433    1438         1     ; C-N-C-C
 1433    1461         1     ; C-N-C-O
 1433    1439         1     ; C-N-C-C
 1433    1441         1     ; C-N-C-O
 1434    1498         1     ; C-C-C-H
 1434    1437         1     ; C-C-N-C
 1434    1440         1     ; C-C-N-C
 1435    1491         1     ; C-C-N-C
 1435    1497         1     ; C-C-C-H
 1435    1436         1     ; C-C-C-N
 1436    1498         1     ; N-C-C-H
 1436    1500         1     ; N-C-C-H
 1436    1442         1     ; N-C-C-C
 1436    1445         1     ; N-C-C-C
 1437    1441         1     ; C-N-C-O
 1437    1445         1     ; C-C-C-C
 1437    1443         1     ; C-C-C-C
 1437    1501         1     ; C-C-C-H
 1438    1441         1     ; C-C-C-O
 1438    1444         1     ; C-C-C-C
 1438    1503         1     ; C-C-C-H
 1438    1452         1     ; C-C-C-C
 1439    1461         1     ; C-C-C-O
 1439    1443         1     ; C-C-C-C
 1439    1501         1     ; C-C-C-H
 1439    1502         1     ; C-C-C-H
 1440    1461         1     ; C-N-C-O
 1440    1442         1     ; C-C-C-C
 1440    1444         1     ; C-C-C-C
 1440    1503         1     ; C-C-C-H
 1441    1445         1     ; O-C-C-C
 1442    1461         1     ; C-C-C-O
 1442    1445         1     ; C-C-C-C
 1442    1502         1     ; C-C-C-H
 1442    1446         1     ; C-C-C-C
 1442    1453         1     ; C-C-C-C
 1442    1457         1     ; C-C-C-C
 1443    1503         1     ; C-C-C-H
 1443    1447         1     ; C-C-C-C
 1443    1449         1     ; C-C-C-C
 1443    1454         1     ; C-C-C-F
 1443    1455         1     ; C-C-C-F
 1443    1456         1     ; C-C-C-F
 1443    1458         1     ; C-C-C-F
 1443    1459         1     ; C-C-C-F
 1443    1460         1     ; C-C-C-F
 1444    1501         1     ; C-C-C-H
 1444    1446         1     ; C-C-C-C
 1444    1453         1     ; C-C-C-C
 1444    1457         1     ; C-C-C-C
 1445    1452         1     ; C-C-C-C
 1446    1450         1     ; C-C-C-C
 1446    1462         1     ; C-C-C-C
 1446    1506         1     ; C-C-C-H
 1446    1454         1     ; C-C-C-F
 1446    1455         1     ; C-C-C-F
 1446    1456         1     ; C-C-C-F
 1446    1458         1     ; C-C-C-F
 1446    1459         1     ; C-C-C-F
 1446    1460         1     ; C-C-C-F
 1447    1451         1     ; C-C-C-C
 1447    1504         1     ; C-C-C-H
 1447    1453         1     ; C-C-C-C
 1447    1457         1     ; C-C-C-C
 1447    1464         1     ; C-C-C-C
 1447    1463         1     ; C-C-C-N
 1447    1507         1     ; C-C-C-O
 1448    1449         1     ; C-C-C-C
 1448    1452         1     ; C-C-C-C
 1448    1506         1     ; C-C-C-H
 1448    1465         1     ; C-C-C-O
 1448    1579         1     ; C-C-N-C
 1449    1505         1     ; C-C-C-H
 1449    1453         1     ; C-C-C-C
 1449    1457         1     ; C-C-C-C
 1449    1464         1     ; C-C-C-C
 1450    1505         1     ; C-C-C-H
 1450    1507         1     ; C-C-C-O
 1450    1504         1     ; C-C-C-H
 1450    1579         1     ; C-C-N-C
 1451    1452         1     ; C-C-C-C
 1451    1462         1     ; C-C-C-C
 1451    1463         1     ; C-C-C-N
 1451    1465         1     ; C-C-C-O
 1452    1501         1     ; C-C-C-H
 1452    1502         1     ; C-C-C-H
 1452    1505         1     ; C-C-C-H
 1452    1504         1     ; C-C-C-H
 1453    1458         1     ; C-C-C-F
 1453    1459         1     ; C-C-C-F
 1453    1460         1     ; C-C-C-F
 1454    1457         1     ; F-C-C-C
 1455    1457         1     ; F-C-C-C
 1456    1457         1     ; F-C-C-C
 1462    1505         1     ; C-C-C-H
 1462    1465         1     ; C-N-C-O
 1462    1578         1     ; C-N-C-C
 1462    1580         1     ; C-N-C-C
 1463    1577         1     ; N-C-C-C
 1463    1606         1     ; N-C-C-H
 1463    1581         1     ; N-C-C-C
 1463    1608         1     ; N-C-C-H
 1464    1506         1     ; C-C-C-H
 1464    1507         1     ; C-N-C-O
 1464    1578         1     ; C-N-C-C
 1464    1580         1     ; C-N-C-C
 1465    1579         1     ; O-C-N-C
 1466    1492         1     ; C-C-N-C
 1466    1518         1     ; C-C-N-C
 1466    1491         1     ; C-C-N-C
 1466    1471         1     ; C-C-C-C
 1466    1509         1     ; C-C-C-H
 1466    1516         1     ; C-C-C-H
 1467    1470         1     ; C-C-C-C
 1467    1510         1     ; C-C-C-H
 1467    1472         1     ; C-C-C-C
 1468    1469         1     ; C-C-C-C
 1468    1508         1     ; C-C-C-H
 1468    1472         1     ; C-C-C-C
 1469    1516         1     ; C-C-C-H
 1469    1473         1     ; C-C-C-N
 1469    1474         1     ; C-C-C-N
 1470    1509         1     ; C-C-C-H
 1470    1473         1     ; C-C-C-N
 1470    1474         1     ; C-C-C-N
 1471    1508         1     ; C-C-C-H
 1471    1510         1     ; C-C-C-H
 1471    1475         1     ; C-C-N-C
 1471    1481         1     ; C-C-N-C
 1471    1476         1     ; C-C-N-C
 1471    1477         1     ; C-C-N-C
 1472    1509         1     ; C-C-C-H
 1472    1516         1     ; C-C-C-H
 1472    1515         1     ; C-N-C-H
 1472    1482         1     ; C-N-C-C
 1472    1486         1     ; C-N-C-C
 1472    1487         1     ; C-N-C-C
 1472    1478         1     ; C-N-C-H
 1472    1479         1     ; C-N-C-H
 1472    1480         1     ; C-N-C-H
 1473    1477         1     ; N-C-N-C
 1473    1487         1     ; N-C-C-C
 1473    1483         1     ; N-C-C-C
 1473    1512         1     ; N-C-C-H
 1473    1485         1     ; N-C-C-C
 1473    1514         1     ; N-C-C-H
 1474    1481         1     ; N-C-N-C
 1474    1515         1     ; N-C-C-H
 1474    1488         1     ; N-C-C-F
 1474    1489         1     ; N-C-C-F
 1474    1490         1     ; N-C-C-F
 1475    1482         1     ; C-N-C-C
 1475    1486         1     ; C-N-C-C
 1475    1477         1     ; C-C-N-C
 1475    1488         1     ; C-C-C-F
 1475    1489         1     ; C-C-C-F
 1475    1490         1     ; C-C-C-F
 1476    1478         1     ; C-N-C-H
 1476    1479         1     ; C-N-C-H
 1476    1480         1     ; C-N-C-H
 1476    1481         1     ; C-C-N-C
 1477    1487         1     ; C-N-C-C
 1481    1515         1     ; C-N-C-H
 1481    1484         1     ; C-C-C-C
 1481    1511         1     ; C-C-C-H
 1481    1513         1     ; C-C-C-H
 1482    1485         1     ; C-C-C-C
 1482    1514         1     ; C-C-C-H
 1483    1486         1     ; C-C-C-C
 1483    1513         1     ; C-C-C-H
 1484    1512         1     ; C-C-C-H
 1484    1514         1     ; C-C-C-H
 1485    1511         1     ; C-C-C-H
 1486    1512         1     ; C-C-C-H
 1487    1515         1     ; C-C-C-H
 1491    1518         1     ; C-C-N-C
 1491    1494         1     ; C-C-C-F
 1491    1495         1     ; C-C-C-F
 1491    1517         1     ; C-C-C-F
 1492    1519         1     ; C-N-C-H
 1492    1520         1     ; C-N-C-H
 1492    1521         1     ; C-N-C-H
 1493    1518         1     ; C-C-N-C
 1493    1496         1     ; C-C-C-H
 1497    1498         1     ; H-C-C-H
 1499    1500         1     ; H-C-C-H
 1502    1503         1     ; H-C-C-H
 1504    1506         1     ; H-C-C-H
 1507    1579         1     ; O-C-N-C
 1508    1509         1     ; H-C-C-H
 1510    1516         1     ; H-C-C-H
 1511    1512         1     ; H-C-C-H
 1513    1514         1     ; H-C-C-H
 1522    1525         1     ; N-C-N-C
 1522    1562         1     ; N-C-C-C
 1522    1563         1     ; N-C-C-C
 1522    1591         1     ; N-C-C-H
 1522    1589         1     ; N-C-C-F
 1522    1590         1     ; N-C-C-F
 1522    1612         1     ; N-C-C-F
 1523    1613         1     ; N-C-N-C
 1523    1562         1     ; N-C-C-C
 1523    1563         1     ; N-C-C-C
 1523    1527         1     ; N-C-C-C
 1523    1592         1     ; N-C-C-H
 1523    1529         1     ; N-C-C-C
 1523    1594         1     ; N-C-C-H
 1523    1588         1     ; N-C-C-C
 1524    1588         1     ; C-N-C-C
 1524    1614         1     ; C-N-C-H
 1524    1615         1     ; C-N-C-H
 1524    1616         1     ; C-N-C-H
 1524    1526         1     ; C-N-C-C
 1524    1530         1     ; C-N-C-C
 1524    1591         1     ; C-N-C-H
 1524    1564         1     ; C-C-C-C
 1524    1603         1     ; C-C-C-H
 1524    1565         1     ; C-C-C-C
 1524    1605         1     ; C-C-C-H
 1525    1561         1     ; C-N-C-C
 1525    1587         1     ; C-N-C-C
 1525    1591         1     ; C-N-C-H
 1525    1528         1     ; C-C-C-C
 1525    1593         1     ; C-C-C-H
 1525    1595         1     ; C-C-C-H
 1526    1586         1     ; C-C-N-C
 1526    1529         1     ; C-C-C-C
 1526    1594         1     ; C-C-C-H
 1526    1531         1     ; C-C-C-N
 1527    1530         1     ; C-C-C-C
 1527    1595         1     ; C-C-C-H
 1527    1532         1     ; C-C-N-C
 1527    1535         1     ; C-C-N-C
 1528    1592         1     ; C-C-C-H
 1528    1594         1     ; C-C-C-H
 1528    1533         1     ; C-N-C-C
 1528    1556         1     ; C-N-C-O
 1528    1534         1     ; C-N-C-C
 1528    1536         1     ; C-N-C-O
 1529    1593         1     ; C-C-C-H
 1529    1532         1     ; C-C-N-C
 1529    1535         1     ; C-C-N-C
 1530    1586         1     ; C-C-N-C
 1530    1592         1     ; C-C-C-H
 1530    1531         1     ; C-C-C-N
 1531    1593         1     ; N-C-C-H
 1531    1595         1     ; N-C-C-H
 1531    1537         1     ; N-C-C-C
 1531    1540         1     ; N-C-C-C
 1532    1536         1     ; C-N-C-O
 1532    1540         1     ; C-C-C-C
 1532    1538         1     ; C-C-C-C
 1532    1596         1     ; C-C-C-H
 1533    1536         1     ; C-C-C-O
 1533    1539         1     ; C-C-C-C
 1533    1598         1     ; C-C-C-H
 1533    1547         1     ; C-C-C-C
 1534    1556         1     ; C-C-C-O
 1534    1538         1     ; C-C-C-C
 1534    1596         1     ; C-C-C-H
 1534    1597         1     ; C-C-C-H
 1535    1556         1     ; C-N-C-O
 1535    1537         1     ; C-C-C-C
 1535    1539         1     ; C-C-C-C
 1535    1598         1     ; C-C-C-H
 1536    1540         1     ; O-C-C-C
 1537    1556         1     ; C-C-C-O
 1537    1540         1     ; C-C-C-C
 1537    1597         1     ; C-C-C-H
 1537    1541         1     ; C-C-C-C
 1537    1548         1     ; C-C-C-C
 1537    1552         1     ; C-C-C-C
 1538    1598         1     ; C-C-C-H
 1538    1542         1     ; C-C-C-C
 1538    1544         1     ; C-C-C-C
 1538    1549         1     ; C-C-C-F
 1538    1550         1     ; C-C-C-F
 1538    1551         1     ; C-C-C-F
 1538    1553         1     ; C-C-C-F
 1538    1554         1     ; C-C-C-F
 1538    1555         1     ; C-C-C-F
 1539    1596         1     ; C-C-C-H
 1539    1541         1     ; C-C-C-C
 1539    1548         1     ; C-C-C-C
 1539    1552         1     ; C-C-C-C
 1540    1547         1     ; C-C-C-C
 1541    1545         1     ; C-C-C-C
 1541    1557         1     ; C-C-C-C
 1541    1601         1     ; C-C-C-H
 1541    1549         1     ; C-C-C-F
 1541    1550         1     ; C-C-C-F
 1541    1551         1     ; C-C-C-F
 1541    1553         1     ; C-C-C-F
 1541    1554         1     ; C-C-C-F
 1541    1555         1     ; C-C-C-F
 1542    1546         1     ; C-C-C-C
 1542    1599         1     ; C-C-C-H
 1542    1548         1     ; C-C-C-C
 1542    1552         1     ; C-C-C-C
 1542    1559         1     ; C-C-C-C
 1542    1558         1     ; C-C-C-N
 1542    1602         1     ; C-C-C-O
 1543    1544         1     ; C-C-C-C
 1543    1547         1     ; C-C-C-C
 1543    1601         1     ; C-C-C-H
 1543    1560         1     ; C-C-C-O
 1543    1674         1     ; C-C-N-C
 1544    1600         1     ; C-C-C-H
 1544    1548         1     ; C-C-C-C
 1544    1552         1     ; C-C-C-C
 1544    1559         1     ; C-C-C-C
 1545    1600         1     ; C-C-C-H
 1545    1602         1     ; C-C-C-O
 1545    1599         1     ; C-C-C-H
 1545    1674         1     ; C-C-N-C
 1546    1547         1     ; C-C-C-C
 1546    1557         1     ; C-C-C-C
 1546    1558         1     ; C-C-C-N
 1546    1560         1     ; C-C-C-O
 1547    1596         1     ; C-C-C-H
 1547    1597         1     ; C-C-C-H
 1547    1600         1     ; C-C-C-H
 1547    1599         1     ; C-C-C-H
 1548    1553         1     ; C-C-C-F
 1548    1554         1     ; C-C-C-F
 1548    1555         1     ; C-C-C-F
 1549    1552         1     ; F-C-C-C
 1550    1552         1     ; F-C-C-C
 1551    1552         1     ; F-C-C-C
 1557    1600         1     ; C-C-C-H
 1557    1560         1     ; C-N-C-O
 1557    1673         1     ; C-N-C-C
 1557    1675         1     ; C-N-C-C
 1558    1672         1     ; N-C-C-C
 1558    1701         1     ; N-C-C-H
 1558    1676         1     ; N-C-C-C
 1558    1703         1     ; N-C-C-H
 1559    1601         1     ; C-C-C-H
 1559    1602         1     ; C-N-C-O
 1559    1673         1     ; C-N-C-C
 1559    1675         1     ; C-N-C-C
 1560    1674         1     ; O-C-N-C
 1561    1587         1     ; C-C-N-C
 1561    1613         1     ; C-C-N-C
 1561    1586         1     ; C-C-N-C
 1561    1566         1     ; C-C-C-C
 1561    1604         1     ; C-C-C-H
 1561    1611         1     ; C-C-C-H
 1562    1565         1     ; C-C-C-C
 1562    1605         1     ; C-C-C-H
 1562    1567         1     ; C-C-C-C
 1563    1564         1     ; C-C-C-C
 1563    1603         1     ; C-C-C-H
 1563    1567         1     ; C-C-C-C
 1564    1611         1     ; C-C-C-H
 1564    1568         1     ; C-C-C-N
 1564    1569         1     ; C-C-C-N
 1565    1604         1     ; C-C-C-H
 1565    1568         1     ; C-C-C-N
 1565    1569         1     ; C-C-C-N
 1566    1603         1     ; C-C-C-H
 1566    1605         1     ; C-C-C-H
 1566    1570         1     ; C-C-N-C
 1566    1576         1     ; C-C-N-C
 1566    1571         1     ; C-C-N-C
 1566    1572         1     ; C-C-N-C
 1567    1604         1     ; C-C-C-H
 1567    1611         1     ; C-C-C-H
 1567    1610         1     ; C-N-C-H
 1567    1577         1     ; C-N-C-C
 1567    1581         1     ; C-N-C-C
 1567    1582         1     ; C-N-C-C
 1567    1573         1     ; C-N-C-H
 1567    1574         1     ; C-N-C-H
 1567    1575         1     ; C-N-C-H
 1568    1572         1     ; N-C-N-C
 1568    1582         1     ; N-C-C-C
 1568    1578         1     ; N-C-C-C
 1568    1607         1     ; N-C-C-H
 1568    1580         1     ; N-C-C-C
 1568    1609         1     ; N-C-C-H
 1569    1576         1     ; N-C-N-C
 1569    1610         1     ; N-C-C-H
 1569    1583         1     ; N-C-C-F
 1569    1584         1     ; N-C-C-F
 1569    1585         1     ; N-C-C-F
 1570    1577         1     ; C-N-C-C
 1570    1581         1     ; C-N-C-C
 1570    1572         1     ; C-C-N-C
 1570    1583         1     ; C-C-C-F
 1570    1584         1     ; C-C-C-F
 1570    1585         1     ; C-C-C-F
 1571    1573         1     ; C-N-C-H
 1571    1574         1     ; C-N-C-H
 1571    1575         1     ; C-N-C-H
 1571    1576         1     ; C-C-N-C
 1572    1582         1     ; C-N-C-C
 1576    1610         1     ; C-N-C-H
 1576    1579         1     ; C-C-C-C
 1576    1606         1     ; C-C-C-H
 1576    1608         1     ; C-C-C-H
 1577    1580         1     ; C-C-C-C
 1577    1609         1     ; C-C-C-H
 1578    1581         1     ; C-C-C-C
 1578    1608         1     ; C-C-C-H
 1579    1607         1     ; C-C-C-H
 1579    1609         1     ; C-C-C-H
 1580    1606         1     ; C-C-C-H
 1581    1607         1     ; C-C-C-H
 1582    1610         1     ; C-C-C-H
 1586    1613         1     ; C-C-N-C
 1586    1589         1     ; C-C-C-F
 1586    1590         1     ; C-C-C-F
 1586    1612         1     ; C-C-C-F
 1587    1614         1     ; C-N-C-H
 1587    1615         1     ; C-N-C-H
 1587    1616         1     ; C-N-C-H
 1588    1613         1     ; C-C-N-C
 1588    1591         1     ; C-C-C-H
 1592    1593         1     ; H-C-C-H
 1594    1595         1     ; H-C-C-H
 1597    1598         1     ; H-C-C-H
 1599    1601         1     ; H-C-C-H
 1602    1674         1     ; O-C-N-C
 1603    1604         1     ; H-C-C-H
 1605    1611         1     ; H-C-C-H
 1606    1607         1     ; H-C-C-H
 1608    1609         1     ; H-C-C-H
 1617    1620         1     ; N-C-N-C
 1617    1657         1     ; N-C-C-C
 1617    1658         1     ; N-C-C-C
 1617    1686         1     ; N-C-C-H
 1617    1684         1     ; N-C-C-F
 1617    1685         1     ; N-C-C-F
 1617    1707         1     ; N-C-C-F
 1618    1708         1     ; N-C-N-C
 1618    1657         1     ; N-C-C-C
 1618    1658         1     ; N-C-C-C
 1618    1622         1     ; N-C-C-C
 1618    1687         1     ; N-C-C-H
 1618    1624         1     ; N-C-C-C
 1618    1689         1     ; N-C-C-H
 1618    1683         1     ; N-C-C-C
 1619    1683         1     ; C-N-C-C
 1619    1709         1     ; C-N-C-H
 1619    1710         1     ; C-N-C-H
 1619    1711         1     ; C-N-C-H
 1619    1621         1     ; C-N-C-C
 1619    1625         1     ; C-N-C-C
 1619    1686         1     ; C-N-C-H
 1619    1659         1     ; C-C-C-C
 1619    1698         1     ; C-C-C-H
 1619    1660         1     ; C-C-C-C
 1619    1700         1     ; C-C-C-H
 1620    1656         1     ; C-N-C-C
 1620    1682         1     ; C-N-C-C
 1620    1686         1     ; C-N-C-H
 1620    1623         1     ; C-C-C-C
 1620    1688         1     ; C-C-C-H
 1620    1690         1     ; C-C-C-H
 1621    1681         1     ; C-C-N-C
 1621    1624         1     ; C-C-C-C
 1621    1689         1     ; C-C-C-H
 1621    1626         1     ; C-C-C-N
 1622    1625         1     ; C-C-C-C
 1622    1690         1     ; C-C-C-H
 1622    1627         1     ; C-C-N-C
 1622    1630         1     ; C-C-N-C
 1623    1687         1     ; C-C-C-H
 1623    1689         1     ; C-C-C-H
 1623    1628         1     ; C-N-C-C
 1623    1651         1     ; C-N-C-O
 1623    1629         1     ; C-N-C-C
 1623    1631         1     ; C-N-C-O
 1624    1688         1     ; C-C-C-H
 1624    1627         1     ; C-C-N-C
 1624    1630         1     ; C-C-N-C
 1625    1681         1     ; C-C-N-C
 1625    1687         1     ; C-C-C-H
 1625    1626         1     ; C-C-C-N
 1626    1688         1     ; N-C-C-H
 1626    1690         1     ; N-C-C-H
 1626    1632         1     ; N-C-C-C
 1626    1635         1     ; N-C-C-C
 1627    1631         1     ; C-N-C-O
 1627    1635         1     ; C-C-C-C
 1627    1633         1     ; C-C-C-C
 1627    1691         1     ; C-C-C-H
 1628    1631         1     ; C-C-C-O
 1628    1634         1     ; C-C-C-C
 1628    1693         1     ; C-C-C-H
 1628    1642         1     ; C-C-C-C
 1629    1651         1     ; C-C-C-O
 1629    1633         1     ; C-C-C-C
 1629    1691         1     ; C-C-C-H
 1629    1692         1     ; C-C-C-H
 1630    1651         1     ; C-N-C-O
 1630    1632         1     ; C-C-C-C
 1630    1634         1     ; C-C-C-C
 1630    1693         1     ; C-C-C-H
 1631    1635         1     ; O-C-C-C
 1632    1651         1     ; C-C-C-O
 1632    1635         1     ; C-C-C-C
 1632    1692         1     ; C-C-C-H
 1632    1636         1     ; C-C-C-C
 1632    1643         1     ; C-C-C-C
 1632    1647         1     ; C-C-C-C
 1633    1693         1     ; C-C-C-H
 1633    1637         1     ; C-C-C-C
 1633    1639         1     ; C-C-C-C
 1633    1644         1     ; C-C-C-F
 1633    1645         1     ; C-C-C-F
 1633    1646         1     ; C-C-C-F
 1633    1648         1     ; C-C-C-F
 1633    1649         1     ; C-C-C-F
 1633    1650         1     ; C-C-C-F
 1634    1691         1     ; C-C-C-H
 1634    1636         1     ; C-C-C-C
 1634    1643         1     ; C-C-C-C
 1634    1647         1     ; C-C-C-C
 1635    1642         1     ; C-C-C-C
 1636    1640         1     ; C-C-C-C
 1636    1652         1     ; C-C-C-C
 1636    1696         1     ; C-C-C-H
 1636    1644         1     ; C-C-C-F
 1636    1645         1     ; C-C-C-F
 1636    1646         1     ; C-C-C-F
 1636    1648         1     ; C-C-C-F
 1636    1649         1     ; C-C-C-F
 1636    1650         1     ; C-C-C-F
 1637    1641         1     ; C-C-C-C
 1637    1694         1     ; C-C-C-H
 1637    1643         1     ; C-C-C-C
 1637    1647         1     ; C-C-C-C
 1637    1654         1     ; C-C-C-C
 1637    1653         1     ; C-C-C-N
 1637    1697         1     ; C-C-C-O
 1638    1639         1     ; C-C-C-C
 1638    1642         1     ; C-C-C-C
 1638    1696         1     ; C-C-C-H
 1638    1655         1     ; C-C-C-O
 1638    1769         1     ; C-C-N-C
 1639    1695         1     ; C-C-C-H
 1639    1643         1     ; C-C-C-C
 1639    1647         1     ; C-C-C-C
 1639    1654         1     ; C-C-C-C
 1640    1695         1     ; C-C-C-H
 1640    1697         1     ; C-C-C-O
 1640    1694         1     ; C-C-C-H
 1640    1769         1     ; C-C-N-C
 1641    1642         1     ; C-C-C-C
 1641    1652         1     ; C-C-C-C
 1641    1653         1     ; C-C-C-N
 1641    1655         1     ; C-C-C-O
 1642    1691         1     ; C-C-C-H
 1642    1692         1     ; C-C-C-H
 1642    1695         1     ; C-C-C-H
 1642    1694         1     ; C-C-C-H
 1643    1648         1     ; C-C-C-F
 1643    1649         1     ; C-C-C-F
 1643    1650         1     ; C-C-C-F
 1644    1647         1     ; F-C-C-C
 1645    1647         1     ; F-C-C-C
 1646    1647         1     ; F-C-C-C
 1652    1695         1     ; C-C-C-H
 1652    1655         1     ; C-N-C-O
 1652    1768         1     ; C-N-C-C
 1652    1770         1     ; C-N-C-C
 1653    1767         1     ; N-C-C-C
 1653    1796         1     ; N-C-C-H
 1653    1771         1     ; N-C-C-C
 1653    1798         1     ; N-C-C-H
 1654    1696         1     ; C-C-C-H
 1654    1697         1     ; C-N-C-O
 1654    1768         1     ; C-N-C-C
 1654    1770         1     ; C-N-C-C
 1655    1769         1     ; O-C-N-C
 1656    1682         1     ; C-C-N-C
 1656    1708         1     ; C-C-N-C
 1656    1681         1     ; C-C-N-C
 1656    1661         1     ; C-C-C-C
 1656    1699         1     ; C-C-C-H
 1656    1706         1     ; C-C-C-H
 1657    1660         1     ; C-C-C-C
 1657    1700         1     ; C-C-C-H
 1657    1662         1     ; C-C-C-C
 1658    1659         1     ; C-C-C-C
 1658    1698         1     ; C-C-C-H
 1658    1662         1     ; C-C-C-C
 1659    1706         1     ; C-C-C-H
 1659    1663         1     ; C-C-C-N
 1659    1664         1     ; C-C-C-N
 1660    1699         1     ; C-C-C-H
 1660    1663         1     ; C-C-C-N
 1660    1664         1     ; C-C-C-N
 1661    1698         1     ; C-C-C-H
 1661    1700         1     ; C-C-C-H
 1661    1665         1     ; C-C-N-C
 1661    1671         1     ; C-C-N-C
 1661    1666         1     ; C-C-N-C
 1661    1667         1     ; C-C-N-C
 1662    1699         1     ; C-C-C-H
 1662    1706         1     ; C-C-C-H
 1662    1705         1     ; C-N-C-H
 1662    1672         1     ; C-N-C-C
 1662    1676         1     ; C-N-C-C
 1662    1677         1     ; C-N-C-C
 1662    1668         1     ; C-N-C-H
 1662    1669         1     ; C-N-C-H
 1662    1670         1     ; C-N-C-H
 1663    1667         1     ; N-C-N-C
 1663    1677         1     ; N-C-C-C
 1663    1673         1     ; N-C-C-C
 1663    1702         1     ; N-C-C-H
 1663    1675         1     ; N-C-C-C
 1663    1704         1     ; N-C-C-H
 1664    1671         1     ; N-C-N-C
 1664    1705         1     ; N-C-C-H
 1664    1678         1     ; N-C-C-F
 1664    1679         1     ; N-C-C-F
 1664    1680         1     ; N-C-C-F
 1665    1672         1     ; C-N-C-C
 1665    1676         1     ; C-N-C-C
 1665    1667         1     ; C-C-N-C
 1665    1678         1     ; C-C-C-F
 1665    1679         1     ; C-C-C-F
 1665    1680         1     ; C-C-C-F
 1666    1668         1     ; C-N-C-H
 1666    1669         1     ; C-N-C-H
 1666    1670         1     ; C-N-C-H
 1666    1671         1     ; C-C-N-C
 1667    1677         1     ; C-N-C-C
 1671    1705         1     ; C-N-C-H
 1671    1674         1     ; C-C-C-C
 1671    1701         1     ; C-C-C-H
 1671    1703         1     ; C-C-C-H
 1672    1675         1     ; C-C-C-C
 1672    1704         1     ; C-C-C-H
 1673    1676         1     ; C-C-C-C
 1673    1703         1     ; C-C-C-H
 1674    1702         1     ; C-C-C-H
 1674    1704         1     ; C-C-C-H
 1675    1701         1     ; C-C-C-H
 1676    1702         1     ; C-C-C-H
 1677    1705         1     ; C-C-C-H
 1681    1708         1     ; C-C-N-C
 1681    1684         1     ; C-C-C-F
 1681    1685         1     ; C-C-C-F
 1681    1707         1     ; C-C-C-F
 1682    1709         1     ; C-N-C-H
 1682    1710         1     ; C-N-C-H
 1682    1711         1     ; C-N-C-H
 1683    1708         1     ; C-C-N-C
 1683    1686         1     ; C-C-C-H
 1687    1688         1     ; H-C-C-H
 1689    1690         1     ; H-C-C-H
 1692    1693         1     ; H-C-C-H
 1694    1696         1     ; H-C-C-H
 1697    1769         1     ; O-C-N-C
 1698    1699         1     ; H-C-C-H
 1700    1706         1     ; H-C-C-H
 1701    1702         1     ; H-C-C-H
 1703    1704         1     ; H-C-C-H
 1712    1715         1     ; N-C-N-C
 1712    1752         1     ; N-C-C-C
 1712    1753         1     ; N-C-C-C
 1712    1781         1     ; N-C-C-H
 1712    1779         1     ; N-C-C-F
 1712    1780         1     ; N-C-C-F
 1712    1802         1     ; N-C-C-F
 1713    1803         1     ; N-C-N-C
 1713    1752         1     ; N-C-C-C
 1713    1753         1     ; N-C-C-C
 1713    1717         1     ; N-C-C-C
 1713    1782         1     ; N-C-C-H
 1713    1719         1     ; N-C-C-C
 1713    1784         1     ; N-C-C-H
 1713    1778         1     ; N-C-C-C
 1714    1778         1     ; C-N-C-C
 1714    1804         1     ; C-N-C-H
 1714    1805         1     ; C-N-C-H
 1714    1806         1     ; C-N-C-H
 1714    1716         1     ; C-N-C-C
 1714    1720         1     ; C-N-C-C
 1714    1781         1     ; C-N-C-H
 1714    1754         1     ; C-C-C-C
 1714    1793         1     ; C-C-C-H
 1714    1755         1     ; C-C-C-C
 1714    1795         1     ; C-C-C-H
 1715    1751         1     ; C-N-C-C
 1715    1777         1     ; C-N-C-C
 1715    1781         1     ; C-N-C-H
 1715    1718         1     ; C-C-C-C
 1715    1783         1     ; C-C-C-H
 1715    1785         1     ; C-C-C-H
 1716    1776         1     ; C-C-N-C
 1716    1719         1     ; C-C-C-C
 1716    1784         1     ; C-C-C-H
 1716    1721         1     ; C-C-C-N
 1717    1720         1     ; C-C-C-C
 1717    1785         1     ; C-C-C-H
 1717    1722         1     ; C-C-N-C
 1717    1725         1     ; C-C-N-C
 1718    1782         1     ; C-C-C-H
 1718    1784         1     ; C-C-C-H
 1718    1723         1     ; C-N-C-C
 1718    1746         1     ; C-N-C-O
 1718    1724         1     ; C-N-C-C
 1718    1726         1     ; C-N-C-O
 1719    1783         1     ; C-C-C-H
 1719    1722         1     ; C-C-N-C
 1719    1725         1     ; C-C-N-C
 1720    1776         1     ; C-C-N-C
 1720    1782         1     ; C-C-C-H
 1720    1721         1     ; C-C-C-N
 1721    1783         1     ; N-C-C-H
 1721    1785         1     ; N-C-C-H
 1721    1727         1     ; N-C-C-C
 1721    1730         1     ; N-C-C-C
 1722    1726         1     ; C-N-C-O
 1722    1730         1     ; C-C-C-C
 1722    1728         1     ; C-C-C-C
 1722    1786         1     ; C-C-C-H
 1723    1726         1     ; C-C-C-O
 1723    1729         1     ; C-C-C-C
 1723    1788         1     ; C-C-C-H
 1723    1737         1     ; C-C-C-C
 1724    1746         1     ; C-C-C-O
 1724    1728         1     ; C-C-C-C
 1724    1786         1     ; C-C-C-H
 1724    1787         1     ; C-C-C-H
 1725    1746         1     ; C-N-C-O
 1725    1727         1     ; C-C-C-C
 1725    1729         1     ; C-C-C-C
 1725    1788         1     ; C-C-C-H
 1726    1730         1     ; O-C-C-C
 1727    1746         1     ; C-C-C-O
 1727    1730         1     ; C-C-C-C
 1727    1787         1     ; C-C-C-H
 1727    1731         1     ; C-C-C-C
 1727    1738         1     ; C-C-C-C
 1727    1742         1     ; C-C-C-C
 1728    1788         1     ; C-C-C-H
 1728    1732         1     ; C-C-C-C
 1728    1734         1     ; C-C-C-C
 1728    1739         1     ; C-C-C-F
 1728    1740         1     ; C-C-C-F
 1728    1741         1     ; C-C-C-F
 1728    1743         1     ; C-C-C-F
 1728    1744         1     ; C-C-C-F
 1728    1745         1     ; C-C-C-F
 1729    1786         1     ; C-C-C-H
 1729    1731         1     ; C-C-C-C
 1729    1738         1     ; C-C-C-C
 1729    1742         1     ; C-C-C-C
 1730    1737         1     ; C-C-C-C
 1731    1735         1     ; C-C-C-C
 1731    1747         1     ; C-C-C-C
 1731    1791         1     ; C-C-C-H
 1731    1739         1     ; C-C-C-F
 1731    1740         1     ; C-C-C-F
 1731    1741         1     ; C-C-C-F
 1731    1743         1     ; C-C-C-F
 1731    1744         1     ; C-C-C-F
 1731    1745         1     ; C-C-C-F
 1732    1736         1     ; C-C-C-C
 1732    1789         1     ; C-C-C-H
 1732    1738         1     ; C-C-C-C
 1732    1742         1     ; C-C-C-C
 1732    1749         1     ; C-C-C-C
 1732    1748         1     ; C-C-C-N
 1732    1792         1     ; C-C-C-O
 1733    1734         1     ; C-C-C-C
 1733    1737         1     ; C-C-C-C
 1733    1791         1     ; C-C-C-H
 1733    1750         1     ; C-C-C-O
 1733    1864         1     ; C-C-N-C
 1734    1790         1     ; C-C-C-H
 1734    1738         1     ; C-C-C-C
 1734    1742         1     ; C-C-C-C
 1734    1749         1     ; C-C-C-C
 1735    1790         1     ; C-C-C-H
 1735    1792         1     ; C-C-C-O
 1735    1789         1     ; C-C-C-H
 1735    1864         1     ; C-C-N-C
 1736    1737         1     ; C-C-C-C
 1736    1747         1     ; C-C-C-C
 1736    1748         1     ; C-C-C-N
 1736    1750         1     ; C-C-C-O
 1737    1786         1     ; C-C-C-H
 1737    1787         1     ; C-C-C-H
 1737    1790         1     ; C-C-C-H
 1737    1789         1     ; C-C-C-H
 1738    1743         1     ; C-C-C-F
 1738    1744         1     ; C-C-C-F
 1738    1745         1     ; C-C-C-F
 1739    1742         1     ; F-C-C-C
 1740    1742         1     ; F-C-C-C
 1741    1742         1     ; F-C-C-C
 1747    1790         1     ; C-C-C-H
 1747    1750         1     ; C-N-C-O
 1747    1863         1     ; C-N-C-C
 1747    1865         1     ; C-N-C-C
 1748    1862         1     ; N-C-C-C
 1748    1891         1     ; N-C-C-H
 1748    1866         1     ; N-C-C-C
 1748    1893         1     ; N-C-C-H
 1749    1791         1     ; C-C-C-H
 1749    1792         1     ; C-N-C-O
 1749    1863         1     ; C-N-C-C
 1749    1865         1     ; C-N-C-C
 1750    1864         1     ; O-C-N-C
 1751    1777         1     ; C-C-N-C
 1751    1803         1     ; C-C-N-C
 1751    1776         1     ; C-C-N-C
 1751    1756         1     ; C-C-C-C
 1751    1794         1     ; C-C-C-H
 1751    1801         1     ; C-C-C-H
 1752    1755         1     ; C-C-C-C
 1752    1795         1     ; C-C-C-H
 1752    1757         1     ; C-C-C-C
 1753    1754         1     ; C-C-C-C
 1753    1793         1     ; C-C-C-H
 1753    1757         1     ; C-C-C-C
 1754    1801         1     ; C-C-C-H
 1754    1758         1     ; C-C-C-N
 1754    1759         1     ; C-C-C-N
 1755    1794         1     ; C-C-C-H
 1755    1758         1     ; C-C-C-N
 1755    1759         1     ; C-C-C-N
 1756    1793         1     ; C-C-C-H
 1756    1795         1     ; C-C-C-H
 1756    1760         1     ; C-C-N-C
 1756    1766         1     ; C-C-N-C
 1756    1761         1     ; C-C-N-C
 1756    1762         1     ; C-C-N-C
 1757    1794         1     ; C-C-C-H
 1757    1801         1     ; C-C-C-H
 1757    1800         1     ; C-N-C-H
 1757    1767         1     ; C-N-C-C
 1757    1771         1     ; C-N-C-C
 1757    1772         1     ; C-N-C-C
 1757    1763         1     ; C-N-C-H
 1757    1764         1     ; C-N-C-H
 1757    1765         1     ; C-N-C-H
 1758    1762         1     ; N-C-N-C
 1758    1772         1     ; N-C-C-C
 1758    1768         1     ; N-C-C-C
 1758    1797         1     ; N-C-C-H
 1758    1770         1     ; N-C-C-C
 1758    1799         1     ; N-C-C-H
 1759    1766         1     ; N-C-N-C
 1759    1800         1     ; N-C-C-H
 1759    1773         1     ; N-C-C-F
 1759    1774         1     ; N-C-C-F
 1759    1775         1     ; N-C-C-F
 1760    1767         1     ; C-N-C-C
 1760    1771         1     ; C-N-C-C
 1760    1762         1     ; C-C-N-C
 1760    1773         1     ; C-C-C-F
 1760    1774         1     ; C-C-C-F
 1760    1775         1     ; C-C-C-F
 1761    1763         1     ; C-N-C-H
 1761    1764         1     ; C-N-C-H
 1761    1765         1     ; C-N-C-H
 1761    1766         1     ; C-C-N-C
 1762    1772         1     ; C-N-C-C
 1766    1800         1     ; C-N-C-H
 1766    1769         1     ; C-C-C-C
 1766    1796         1     ; C-C-C-H
 1766    1798         1     ; C-C-C-H
 1767    1770         1     ; C-C-C-C
 1767    1799         1     ; C-C-C-H
 1768    1771         1     ; C-C-C-C
 1768    1798         1     ; C-C-C-H
 1769    1797         1     ; C-C-C-H
 1769    1799         1     ; C-C-C-H
 1770    1796         1     ; C-C-C-H
 1771    1797         1     ; C-C-C-H
 1772    1800         1     ; C-C-C-H
 1776    1803         1     ; C-C-N-C
 1776    1779         1     ; C-C-C-F
 1776    1780         1     ; C-C-C-F
 1776    1802         1     ; C-C-C-F
 1777    1804         1     ; C-N-C-H
 1777    1805         1     ; C-N-C-H
 1777    1806         1     ; C-N-C-H
 1778    1803         1     ; C-C-N-C
 1778    1781         1     ; C-C-C-H
 1782    1783         1     ; H-C-C-H
 1784    1785         1     ; H-C-C-H
 1787    1788         1     ; H-C-C-H
 1789    1791         1     ; H-C-C-H
 1792    1864         1     ; O-C-N-C
 1793    1794         1     ; H-C-C-H
 1795    1801         1     ; H-C-C-H
 1796    1797         1     ; H-C-C-H
 1798    1799         1     ; H-C-C-H
 1807    1810         1     ; N-C-N-C
 1807    1847         1     ; N-C-C-C
 1807    1848         1     ; N-C-C-C
 1807    1876         1     ; N-C-C-H
 1807    1874         1     ; N-C-C-F
 1807    1875         1     ; N-C-C-F
 1807    1897         1     ; N-C-C-F
 1808    1898         1     ; N-C-N-C
 1808    1847         1     ; N-C-C-C
 1808    1848         1     ; N-C-C-C
 1808    1812         1     ; N-C-C-C
 1808    1877         1     ; N-C-C-H
 1808    1814         1     ; N-C-C-C
 1808    1879         1     ; N-C-C-H
 1808    1873         1     ; N-C-C-C
 1809    1873         1     ; C-N-C-C
 1809    1899         1     ; C-N-C-H
 1809    1900         1     ; C-N-C-H
 1809    1901         1     ; C-N-C-H
 1809    1811         1     ; C-N-C-C
 1809    1815         1     ; C-N-C-C
 1809    1876         1     ; C-N-C-H
 1809    1849         1     ; C-C-C-C
 1809    1888         1     ; C-C-C-H
 1809    1850         1     ; C-C-C-C
 1809    1890         1     ; C-C-C-H
 1810    1846         1     ; C-N-C-C
 1810    1872         1     ; C-N-C-C
 1810    1876         1     ; C-N-C-H
 1810    1813         1     ; C-C-C-C
 1810    1878         1     ; C-C-C-H
 1810    1880         1     ; C-C-C-H
 1811    1871         1     ; C-C-N-C
 1811    1814         1     ; C-C-C-C
 1811    1879         1     ; C-C-C-H
 1811    1816         1     ; C-C-C-N
 1812    1815         1     ; C-C-C-C
 1812    1880         1     ; C-C-C-H
 1812    1817         1     ; C-C-N-C
 1812    1820         1     ; C-C-N-C
 1813    1877         1     ; C-C-C-H
 1813    1879         1     ; C-C-C-H
 1813    1818         1     ; C-N-C-C
 1813    1841         1     ; C-N-C-O
 1813    1819         1     ; C-N-C-C
 1813    1821         1     ; C-N-C-O
 1814    1878         1     ; C-C-C-H
 1814    1817         1     ; C-C-N-C
 1814    1820         1     ; C-C-N-C
 1815    1871         1     ; C-C-N-C
 1815    1877         1     ; C-C-C-H
 1815    1816         1     ; C-C-C-N
 1816    1878         1     ; N-C-C-H
 1816    1880         1     ; N-C-C-H
 1816    1822         1     ; N-C-C-C
 1816    1825         1     ; N-C-C-C
 1817    1821         1     ; C-N-C-O
 1817    1825         1     ; C-C-C-C
 1817    1823         1     ; C-C-C-C
 1817    1881         1     ; C-C-C-H
 1818    1821         1     ; C-C-C-O
 1818    1824         1     ; C-C-C-C
 1818    1883         1     ; C-C-C-H
 1818    1832         1     ; C-C-C-C
 1819    1841         1     ; C-C-C-O
 1819    1823         1     ; C-C-C-C
 1819    1881         1     ; C-C-C-H
 1819    1882         1     ; C-C-C-H
 1820    1841         1     ; C-N-C-O
 1820    1822         1     ; C-C-C-C
 1820    1824         1     ; C-C-C-C
 1820    1883         1     ; C-C-C-H
 1821    1825         1     ; O-C-C-C
 1822    1841         1     ; C-C-C-O
 1822    1825         1     ; C-C-C-C
 1822    1882         1     ; C-C-C-H
 1822    1826         1     ; C-C-C-C
 1822    1833         1     ; C-C-C-C
 1822    1837         1     ; C-C-C-C
 1823    1883         1     ; C-C-C-H
 1823    1827         1     ; C-C-C-C
 1823    1829         1     ; C-C-C-C
 1823    1834         1     ; C-C-C-F
 1823    1835         1     ; C-C-C-F
 1823    1836         1     ; C-C-C-F
 1823    1838         1     ; C-C-C-F
 1823    1839         1     ; C-C-C-F
 1823    1840         1     ; C-C-C-F
 1824    1881         1     ; C-C-C-H
 1824    1826         1     ; C-C-C-C
 1824    1833         1     ; C-C-C-C
 1824    1837         1     ; C-C-C-C
 1825    1832         1     ; C-C-C-C
 1826    1830         1     ; C-C-C-C
 1826    1842         1     ; C-C-C-C
 1826    1886         1     ; C-C-C-H
 1826    1834         1     ; C-C-C-F
 1826    1835         1     ; C-C-C-F
 1826    1836         1     ; C-C-C-F
 1826    1838         1     ; C-C-C-F
 1826    1839         1     ; C-C-C-F
 1826    1840         1     ; C-C-C-F
 1827    1831         1     ; C-C-C-C
 1827    1884         1     ; C-C-C-H
 1827    1833         1     ; C-C-C-C
 1827    1837         1     ; C-C-C-C
 1827    1844         1     ; C-C-C-C
 1827    1843         1     ; C-C-C-N
 1827    1887         1     ; C-C-C-O
 1828    1829         1     ; C-C-C-C
 1828    1832         1     ; C-C-C-C
 1828    1886         1     ; C-C-C-H
 1828    1845         1     ; C-C-C-O
 1828    1902         1     ; C-C-N-H
 1829    1885         1     ; C-C-C-H
 1829    1833         1     ; C-C-C-C
 1829    1837         1     ; C-C-C-C
 1829    1844         1     ; C-C-C-C
 1830    1885         1     ; C-C-C-H
 1830    1887         1     ; C-C-C-O
 1830    1884         1     ; C-C-C-H
 1830    1902         1     ; C-C-N-H
 1831    1832         1     ; C-C-C-C
 1831    1842         1     ; C-C-C-C
 1831    1843         1     ; C-C-C-N
 1831    1845         1     ; C-C-C-O
 1832    1881         1     ; C-C-C-H
 1832    1882         1     ; C-C-C-H
 1832    1885         1     ; C-C-C-H
 1832    1884         1     ; C-C-C-H
 1833    1838         1     ; C-C-C-F
 1833    1839         1     ; C-C-C-F
 1833    1840         1     ; C-C-C-F
 1834    1837         1     ; F-C-C-C
 1835    1837         1     ; F-C-C-C
 1836    1837         1     ; F-C-C-C
 1842    1885         1     ; C-C-C-H
 1842    1845         1     ; C-N-C-O
 1844    1886         1     ; C-C-C-H
 1844    1887         1     ; C-N-C-O
 1845    1902         1     ; O-C-N-H
 1846    1872         1     ; C-C-N-C
 1846    1898         1     ; C-C-N-C
 1846    1871         1     ; C-C-N-C
 1846    1851         1     ; C-C-C-C
 1846    1889         1     ; C-C-C-H
 1846    1896         1     ; C-C-C-H
 1847    1850         1     ; C-C-C-C
 1847    1890         1     ; C-C-C-H
 1847    1852         1     ; C-C-C-C
 1848    1849         1     ; C-C-C-C
 1848    1888         1     ; C-C-C-H
 1848    1852         1     ; C-C-C-C
 1849    1896         1     ; C-C-C-H
 1849    1853         1     ; C-C-C-N
 1849    1854         1     ; C-C-C-N
 1850    1889         1     ; C-C-C-H
 1850    1853         1     ; C-C-C-N
 1850    1854         1     ; C-C-C-N
 1851    1888         1     ; C-C-C-H
 1851    1890         1     ; C-C-C-H
 1851    1855         1     ; C-C-N-C
 1851    1861         1     ; C-C-N-C
 1851    1856         1     ; C-C-N-C
 1851    1857         1     ; C-C-N-C
 1852    1889         1     ; C-C-C-H
 1852    1896         1     ; C-C-C-H
 1852    1895         1     ; C-N-C-H
 1852    1862         1     ; C-N-C-C
 1852    1866         1     ; C-N-C-C
 1852    1867         1     ; C-N-C-C
 1852    1858         1     ; C-N-C-H
 1852    1859         1     ; C-N-C-H
 1852    1860         1     ; C-N-C-H
 1853    1857         1     ; N-C-N-C
 1853    1867         1     ; N-C-C-C
 1853    1863         1     ; N-C-C-C
 1853    1892         1     ; N-C-C-H
 1853    1865         1     ; N-C-C-C
 1853    1894         1     ; N-C-C-H
 1854    1861         1     ; N-C-N-C
 1854    1895         1     ; N-C-C-H
 1854    1868         1     ; N-C-C-F
 1854    1869         1     ; N-C-C-F
 1854    1870         1     ; N-C-C-F
 1855    1862         1     ; C-N-C-C
 1855    1866         1     ; C-N-C-C
 1855    1857         1     ; C-C-N-C
 1855    1868         1     ; C-C-C-F
 1855    1869         1     ; C-C-C-F
 1855    1870         1     ; C-C-C-F
 1856    1858         1     ; C-N-C-H
 1856    1859         1     ; C-N-C-H
 1856    1860         1     ; C-N-C-H
 1856    1861         1     ; C-C-N-C
 1857    1867         1     ; C-N-C-C
 1861    1895         1     ; C-N-C-H
 1861    1864         1     ; C-C-C-C
 1861    1891         1     ; C-C-C-H
 1861    1893         1     ; C-C-C-H
 1862    1865         1     ; C-C-C-C
 1862    1894         1     ; C-C-C-H
 1863    1866         1     ; C-C-C-C
 1863    1893         1     ; C-C-C-H
 1864    1892         1     ; C-C-C-H
 1864    1894         1     ; C-C-C-H
 1865    1891         1     ; C-C-C-H
 1866    1892         1     ; C-C-C-H
 1867    1895         1     ; C-C-C-H
 1871    1898         1     ; C-C-N-C
 1871    1874         1     ; C-C-C-F
 1871    1875         1     ; C-C-C-F
 1871    1897         1     ; C-C-C-F
 1872    1899         1     ; C-N-C-H
 1872    1900         1     ; C-N-C-H
 1872    1901         1     ; C-N-C-H
 1873    1898         1     ; C-C-N-C
 1873    1876         1     ; C-C-C-H
 1877    1878         1     ; H-C-C-H
 1879    1880         1     ; H-C-C-H
 1882    1883         1     ; H-C-C-H
 1884    1886         1     ; H-C-C-H
 1887    1902         1     ; O-C-N-H
 1888    1889         1     ; H-C-C-H
 1890    1896         1     ; H-C-C-H
 1891    1892         1     ; H-C-C-H
 1893    1894         1     ; H-C-C-H
 
[ dihedrals ] ; impropers
; atom_i  atom_j  atom_k  atom_l  functype  phase (Deg.)  kd (kJ/mol)  pn
    3      66       1      93         4       180.000       4.60240    2     ; C-C-N-C, prebuilt c2-c2-na-c3
    3       4       2      65         4       180.000       4.60240    2     ; C-C-N-C, guess (same as GAFF X -X -ca-ha)
    1       2       3      40         4       180.000       4.60240    2     ; N-N-C-C, guess (same as GAFF X -X -ca-ha)
    2       5       4       9         4       180.000       4.60240    2     ; N-C-C-C, guess (same as GAFF X -X -ca-ha)
    4       6       5      71         4       180.000       4.60240    2     ; C-C-C-H, prebuilt X-X-ca-ha
    5       7       6      72         4       180.000       4.60240    2     ; C-C-C-H, prebuilt X-X-ca-ha
    6       8       7      10         4       180.000       4.60240    2     ; C-C-C-N, guess (same as GAFF X -X -ca-ha)
    7       9       8      74         4       180.000       4.60240    2     ; C-C-C-H, prebuilt X-X-ca-ha
    4       8       9      73         4       180.000       4.60240    2     ; C-C-C-H, prebuilt X-X-ca-ha
    7      11      10      14         4       180.000       4.60240    2     ; C-C-N-C, guess (same as GAFF X -X -ca-ha)
   10      12      11      35         4       180.000      43.93200    2     ; N-C-C-O, prebuilt X-X-c-o
   11      13      12      16         4       180.000       4.60240    2     ; C-C-C-C, guess (same as GAFF X -X -ca-ha)
   12      14      13      19         4       180.000       4.60240    2     ; C-C-C-C, guess (same as GAFF X -X -ca-ha)
   10      13      14      15         4       180.000      43.93200    2     ; N-C-C-O, prebuilt X-X-c-o
   12      17      16      75         4       180.000       4.60240    2     ; C-C-C-H, prebuilt X-X-ca-ha
   16      18      17      26         4       180.000       4.60240    2     ; C-C-C-C, prebuilt ca-ca-ca-c3
   17      19      18      76         4       180.000       4.60240    2     ; C-C-C-H, prebuilt X-X-ca-ha
   13      18      19      77         4       180.000       4.60240    2     ; C-C-C-H, prebuilt X-X-ca-ha
   21      23      20      26         4       180.000       4.60240    2     ; C-C-C-C, prebuilt ca-ca-ca-c3
   20      22      21      79         4       180.000       4.60240    2     ; C-C-C-H, prebuilt X-X-ca-ha
   21      24      22      36         4       180.000       4.60240    2     ; C-C-C-C, guess (same as GAFF X -X -ca-ha)
   20      25      23      78         4       180.000       4.60240    2     ; C-C-C-H, prebuilt X-X-ca-ha
   22      25      24      38         4       180.000       4.60240    2     ; C-C-C-C, guess (same as GAFF X -X -ca-ha)
   23      24      25      80         4       180.000       4.60240    2     ; C-C-C-H, prebuilt X-X-ca-ha
   22      37      36      81         4       180.000      43.93200    2     ; C-N-C-O, prebuilt X-X-c-o
   36      38      37     154         4       180.000       4.60240    2     ; C-C-N-C, guess (same as GAFF X -X -ca-ha)
   24      37      38      39         4       180.000      43.93200    2     ; C-N-C-O, prebuilt X-X-c-o
    3      41      40      42         4       180.000       4.60240    2     ; C-C-C-C, prebuilt ca-ca-ca-c2
   40      43      41      82         4       180.000       4.60240    2     ; C-C-C-H, prebuilt X-X-ca-ha
   40      44      42      84         4       180.000       4.60240    2     ; C-C-C-H, prebuilt X-X-ca-ha
   41      45      43      83         4       180.000       4.60240    2     ; C-C-C-H, prebuilt X-X-ca-ha
   42      45      44      91         4       180.000       4.60240    2     ; C-C-C-H, prebuilt X-X-ca-ha
   43      44      45      46         4       180.000       4.60240    2     ; C-C-C-C, prebuilt ca-ca-ca-c2
   45      47      46      48         4       180.000       4.60240    2     ; C-N-C-N, guess (same as GAFF X -X -ca-ha)
   46      49      47      55         4       180.000       4.60240    2     ; C-C-N-C, guess (same as GAFF X -X -ca-ha)
   46      50      48      51         4       180.000       4.60240    2     ; C-C-N-C, prebuilt c2-c2-na-c3
   47      50      49      90         4       180.000       4.60240    2     ; N-C-C-H, guess (same as GAFF X -X -ca-ha)
   48      49      50      61         4       180.000       4.60240    2     ; N-C-C-C, prebuilt c3-c2-c2-na
   47      56      55      60         4       180.000       4.60240    2     ; N-C-C-C, guess (same as GAFF X -X -ca-ha)
   55      57      56      87         4       180.000       4.60240    2     ; C-C-C-H, prebuilt X-X-ca-ha
   56      58      57      85         4       180.000       4.60240    2     ; C-C-C-H, prebuilt X-X-ca-ha
   57      59      58      86         4       180.000       4.60240    2     ; C-C-C-H, prebuilt X-X-ca-ha
   58      60      59      88         4       180.000       4.60240    2     ; C-C-C-H, prebuilt X-X-ca-ha
   55      59      60      89         4       180.000       4.60240    2     ; C-C-C-H, prebuilt X-X-ca-ha
    2      66      65      70         4       180.000       4.60240    2     ; N-C-C-H, guess (same as GAFF X -X -ca-ha)
    1      65      66      67         4       180.000       4.60240    2     ; N-C-C-C, prebuilt c3-c2-c2-na
   99     162      97     188         4       180.000       4.60240    2     ; C-C-N-C, prebuilt c2-c2-na-c3
   99     100      98     161         4       180.000       4.60240    2     ; C-C-N-C, guess (same as GAFF X -X -ca-ha)
   97      98      99     136         4       180.000       4.60240    2     ; N-N-C-C, guess (same as GAFF X -X -ca-ha)
   98     101     100     105         4       180.000       4.60240    2     ; N-C-C-C, guess (same as GAFF X -X -ca-ha)
  100     102     101     167         4       180.000       4.60240    2     ; C-C-C-H, prebuilt X-X-ca-ha
  101     103     102     168         4       180.000       4.60240    2     ; C-C-C-H, prebuilt X-X-ca-ha
  102     104     103     106         4       180.000       4.60240    2     ; C-C-C-N, guess (same as GAFF X -X -ca-ha)
  103     105     104     170         4       180.000       4.60240    2     ; C-C-C-H, prebuilt X-X-ca-ha
  100     104     105     169         4       180.000       4.60240    2     ; C-C-C-H, prebuilt X-X-ca-ha
  103     107     106     110         4       180.000       4.60240    2     ; C-C-N-C, guess (same as GAFF X -X -ca-ha)
  106     108     107     131         4       180.000      43.93200    2     ; N-C-C-O, prebuilt X-X-c-o
  107     109     108     112         4       180.000       4.60240    2     ; C-C-C-C, guess (same as GAFF X -X -ca-ha)
  108     110     109     115         4       180.000       4.60240    2     ; C-C-C-C, guess (same as GAFF X -X -ca-ha)
  106     109     110     111         4       180.000      43.93200    2     ; N-C-C-O, prebuilt X-X-c-o
  108     113     112     171         4       180.000       4.60240    2     ; C-C-C-H, prebuilt X-X-ca-ha
  112     114     113     122         4       180.000       4.60240    2     ; C-C-C-C, prebuilt ca-ca-ca-c3
  113     115     114     172         4       180.000       4.60240    2     ; C-C-C-H, prebuilt X-X-ca-ha
  109     114     115     173         4       180.000       4.60240    2     ; C-C-C-H, prebuilt X-X-ca-ha
  117     119     116     122         4       180.000       4.60240    2     ; C-C-C-C, prebuilt ca-ca-ca-c3
  116     118     117     175         4       180.000       4.60240    2     ; C-C-C-H, prebuilt X-X-ca-ha
  117     120     118     132         4       180.000       4.60240    2     ; C-C-C-C, guess (same as GAFF X -X -ca-ha)
  116     121     119     174         4       180.000       4.60240    2     ; C-C-C-H, prebuilt X-X-ca-ha
  118     121     120     134         4       180.000       4.60240    2     ; C-C-C-C, guess (same as GAFF X -X -ca-ha)
  119     120     121     176         4       180.000       4.60240    2     ; C-C-C-H, prebuilt X-X-ca-ha
  118     133     132     177         4       180.000      43.93200    2     ; C-N-C-O, prebuilt X-X-c-o
  132     134     133     249         4       180.000       4.60240    2     ; C-C-N-C, guess (same as GAFF X -X -ca-ha)
  120     133     134     135         4       180.000      43.93200    2     ; C-N-C-O, prebuilt X-X-c-o
   99     137     136     138         4       180.000       4.60240    2     ; C-C-C-C, prebuilt ca-ca-ca-c2
  136     139     137     178         4       180.000       4.60240    2     ; C-C-C-H, prebuilt X-X-ca-ha
  136     140     138     180         4       180.000       4.60240    2     ; C-C-C-H, prebuilt X-X-ca-ha
  137     141     139     179         4       180.000       4.60240    2     ; C-C-C-H, prebuilt X-X-ca-ha
  138     141     140     186         4       180.000       4.60240    2     ; C-C-C-H, prebuilt X-X-ca-ha
  139     140     141     142         4       180.000       4.60240    2     ; C-C-C-C, prebuilt ca-ca-ca-c2
  141     143     142     144         4       180.000       4.60240    2     ; C-N-C-N, guess (same as GAFF X -X -ca-ha)
  142     145     143     151         4       180.000       4.60240    2     ; C-C-N-C, guess (same as GAFF X -X -ca-ha)
  142     146     144     147         4       180.000       4.60240    2     ; C-C-N-C, prebuilt c2-c2-na-c3
  143     146     145     185         4       180.000       4.60240    2     ; N-C-C-H, guess (same as GAFF X -X -ca-ha)
  144     145     146     157         4       180.000       4.60240    2     ; N-C-C-C, prebuilt c3-c2-c2-na
  143     152     151     156         4       180.000       4.60240    2     ; N-C-C-C, guess (same as GAFF X -X -ca-ha)
  151     153     152     182         4       180.000       4.60240    2     ; C-C-C-H, prebuilt X-X-ca-ha
  152     154     153     181         4       180.000       4.60240    2     ; C-C-C-H, prebuilt X-X-ca-ha
   37     153     154     155         4       180.000       4.60240    2     ; N-C-C-C, guess (same as GAFF X -X -ca-ha)
  154     156     155     183         4       180.000       4.60240    2     ; C-C-C-H, prebuilt X-X-ca-ha
  151     155     156     184         4       180.000       4.60240    2     ; C-C-C-H, prebuilt X-X-ca-ha
   98     162     161     166         4       180.000       4.60240    2     ; N-C-C-H, guess (same as GAFF X -X -ca-ha)
   97     161     162     163         4       180.000       4.60240    2     ; N-C-C-C, prebuilt c3-c2-c2-na
  194     257     192     283         4       180.000       4.60240    2     ; C-C-N-C, prebuilt c2-c2-na-c3
  194     195     193     256         4       180.000       4.60240    2     ; C-C-N-C, guess (same as GAFF X -X -ca-ha)
  192     193     194     231         4       180.000       4.60240    2     ; N-N-C-C, guess (same as GAFF X -X -ca-ha)
  193     196     195     200         4       180.000       4.60240    2     ; N-C-C-C, guess (same as GAFF X -X -ca-ha)
  195     197     196     262         4       180.000       4.60240    2     ; C-C-C-H, prebuilt X-X-ca-ha
  196     198     197     263         4       180.000       4.60240    2     ; C-C-C-H, prebuilt X-X-ca-ha
  197     199     198     201         4       180.000       4.60240    2     ; C-C-C-N, guess (same as GAFF X -X -ca-ha)
  198     200     199     265         4       180.000       4.60240    2     ; C-C-C-H, prebuilt X-X-ca-ha
  195     199     200     264         4       180.000       4.60240    2     ; C-C-C-H, prebuilt X-X-ca-ha
  198     202     201     205         4       180.000       4.60240    2     ; C-C-N-C, guess (same as GAFF X -X -ca-ha)
  201     203     202     226         4       180.000      43.93200    2     ; N-C-C-O, prebuilt X-X-c-o
  202     204     203     207         4       180.000       4.60240    2     ; C-C-C-C, guess (same as GAFF X -X -ca-ha)
  203     205     204     210         4       180.000       4.60240    2     ; C-C-C-C, guess (same as GAFF X -X -ca-ha)
  201     204     205     206         4       180.000      43.93200    2     ; N-C-C-O, prebuilt X-X-c-o
  203     208     207     266         4       180.000       4.60240    2     ; C-C-C-H, prebuilt X-X-ca-ha
  207     209     208     217         4       180.000       4.60240    2     ; C-C-C-C, prebuilt ca-ca-ca-c3
  208     210     209     267         4       180.000       4.60240    2     ; C-C-C-H, prebuilt X-X-ca-ha
  204     209     210     268         4       180.000       4.60240    2     ; C-C-C-H, prebuilt X-X-ca-ha
  212     214     211     217         4       180.000       4.60240    2     ; C-C-C-C, prebuilt ca-ca-ca-c3
  211     213     212     270         4       180.000       4.60240    2     ; C-C-C-H, prebuilt X-X-ca-ha
  212     215     213     227         4       180.000       4.60240    2     ; C-C-C-C, guess (same as GAFF X -X -ca-ha)
  211     216     214     269         4       180.000       4.60240    2     ; C-C-C-H, prebuilt X-X-ca-ha
  213     216     215     229         4       180.000       4.60240    2     ; C-C-C-C, guess (same as GAFF X -X -ca-ha)
  214     215     216     271         4       180.000       4.60240    2     ; C-C-C-H, prebuilt X-X-ca-ha
  213     228     227     272         4       180.000      43.93200    2     ; C-N-C-O, prebuilt X-X-c-o
  227     229     228     344         4       180.000       4.60240    2     ; C-C-N-C, guess (same as GAFF X -X -ca-ha)
  215     228     229     230         4       180.000      43.93200    2     ; C-N-C-O, prebuilt X-X-c-o
  194     232     231     233         4       180.000       4.60240    2     ; C-C-C-C, prebuilt ca-ca-ca-c2
  231     234     232     273         4       180.000       4.60240    2     ; C-C-C-H, prebuilt X-X-ca-ha
  231     235     233     275         4       180.000       4.60240    2     ; C-C-C-H, prebuilt X-X-ca-ha
  232     236     234     274         4       180.000       4.60240    2     ; C-C-C-H, prebuilt X-X-ca-ha
  233     236     235     281         4       180.000       4.60240    2     ; C-C-C-H, prebuilt X-X-ca-ha
  234     235     236     237         4       180.000       4.60240    2     ; C-C-C-C, prebuilt ca-ca-ca-c2
  236     238     237     239         4       180.000       4.60240    2     ; C-N-C-N, guess (same as GAFF X -X -ca-ha)
  237     240     238     246         4       180.000       4.60240    2     ; C-C-N-C, guess (same as GAFF X -X -ca-ha)
  237     241     239     242         4       180.000       4.60240    2     ; C-C-N-C, prebuilt c2-c2-na-c3
  238     241     240     280         4       180.000       4.60240    2     ; N-C-C-H, guess (same as GAFF X -X -ca-ha)
  239     240     241     252         4       180.000       4.60240    2     ; N-C-C-C, prebuilt c3-c2-c2-na
  238     247     246     251         4       180.000       4.60240    2     ; N-C-C-C, guess (same as GAFF X -X -ca-ha)
  246     248     247     277         4       180.000       4.60240    2     ; C-C-C-H, prebuilt X-X-ca-ha
  247     249     248     276         4       180.000       4.60240    2     ; C-C-C-H, prebuilt X-X-ca-ha
  133     248     249     250         4       180.000       4.60240    2     ; N-C-C-C, guess (same as GAFF X -X -ca-ha)
  249     251     250     278         4       180.000       4.60240    2     ; C-C-C-H, prebuilt X-X-ca-ha
  246     250     251     279         4       180.000       4.60240    2     ; C-C-C-H, prebuilt X-X-ca-ha
  193     257     256     261         4       180.000       4.60240    2     ; N-C-C-H, guess (same as GAFF X -X -ca-ha)
  192     256     257     258         4       180.000       4.60240    2     ; N-C-C-C, prebuilt c3-c2-c2-na
  289     352     287     378         4       180.000       4.60240    2     ; C-C-N-C, prebuilt c2-c2-na-c3
  289     290     288     351         4       180.000       4.60240    2     ; C-C-N-C, guess (same as GAFF X -X -ca-ha)
  287     288     289     326         4       180.000       4.60240    2     ; N-N-C-C, guess (same as GAFF X -X -ca-ha)
  288     291     290     295         4       180.000       4.60240    2     ; N-C-C-C, guess (same as GAFF X -X -ca-ha)
  290     292     291     357         4       180.000       4.60240    2     ; C-C-C-H, prebuilt X-X-ca-ha
  291     293     292     358         4       180.000       4.60240    2     ; C-C-C-H, prebuilt X-X-ca-ha
  292     294     293     296         4       180.000       4.60240    2     ; C-C-C-N, guess (same as GAFF X -X -ca-ha)
  293     295     294     360         4       180.000       4.60240    2     ; C-C-C-H, prebuilt X-X-ca-ha
  290     294     295     359         4       180.000       4.60240    2     ; C-C-C-H, prebuilt X-X-ca-ha
  293     297     296     300         4       180.000       4.60240    2     ; C-C-N-C, guess (same as GAFF X -X -ca-ha)
  296     298     297     321         4       180.000      43.93200    2     ; N-C-C-O, prebuilt X-X-c-o
  297     299     298     302         4       180.000       4.60240    2     ; C-C-C-C, guess (same as GAFF X -X -ca-ha)
  298     300     299     305         4       180.000       4.60240    2     ; C-C-C-C, guess (same as GAFF X -X -ca-ha)
  296     299     300     301         4       180.000      43.93200    2     ; N-C-C-O, prebuilt X-X-c-o
  298     303     302     361         4       180.000       4.60240    2     ; C-C-C-H, prebuilt X-X-ca-ha
  302     304     303     312         4       180.000       4.60240    2     ; C-C-C-C, prebuilt ca-ca-ca-c3
  303     305     304     362         4       180.000       4.60240    2     ; C-C-C-H, prebuilt X-X-ca-ha
  299     304     305     363         4       180.000       4.60240    2     ; C-C-C-H, prebuilt X-X-ca-ha
  307     309     306     312         4       180.000       4.60240    2     ; C-C-C-C, prebuilt ca-ca-ca-c3
  306     308     307     365         4       180.000       4.60240    2     ; C-C-C-H, prebuilt X-X-ca-ha
  307     310     308     322         4       180.000       4.60240    2     ; C-C-C-C, guess (same as GAFF X -X -ca-ha)
  306     311     309     364         4       180.000       4.60240    2     ; C-C-C-H, prebuilt X-X-ca-ha
  308     311     310     324         4       180.000       4.60240    2     ; C-C-C-C, guess (same as GAFF X -X -ca-ha)
  309     310     311     366         4       180.000       4.60240    2     ; C-C-C-H, prebuilt X-X-ca-ha
  308     323     322     367         4       180.000      43.93200    2     ; C-N-C-O, prebuilt X-X-c-o
  322     324     323     439         4       180.000       4.60240    2     ; C-C-N-C, guess (same as GAFF X -X -ca-ha)
  310     323     324     325         4       180.000      43.93200    2     ; C-N-C-O, prebuilt X-X-c-o
  289     327     326     328         4       180.000       4.60240    2     ; C-C-C-C, prebuilt ca-ca-ca-c2
  326     329     327     368         4       180.000       4.60240    2     ; C-C-C-H, prebuilt X-X-ca-ha
  326     330     328     370         4       180.000       4.60240    2     ; C-C-C-H, prebuilt X-X-ca-ha
  327     331     329     369         4       180.000       4.60240    2     ; C-C-C-H, prebuilt X-X-ca-ha
  328     331     330     376         4       180.000       4.60240    2     ; C-C-C-H, prebuilt X-X-ca-ha
  329     330     331     332         4       180.000       4.60240    2     ; C-C-C-C, prebuilt ca-ca-ca-c2
  331     333     332     334         4       180.000       4.60240    2     ; C-N-C-N, guess (same as GAFF X -X -ca-ha)
  332     335     333     341         4       180.000       4.60240    2     ; C-C-N-C, guess (same as GAFF X -X -ca-ha)
  332     336     334     337         4       180.000       4.60240    2     ; C-C-N-C, prebuilt c2-c2-na-c3
  333     336     335     375         4       180.000       4.60240    2     ; N-C-C-H, guess (same as GAFF X -X -ca-ha)
  334     335     336     347         4       180.000       4.60240    2     ; N-C-C-C, prebuilt c3-c2-c2-na
  333     342     341     346         4       180.000       4.60240    2     ; N-C-C-C, guess (same as GAFF X -X -ca-ha)
  341     343     342     372         4       180.000       4.60240    2     ; C-C-C-H, prebuilt X-X-ca-ha
  342     344     343     371         4       180.000       4.60240    2     ; C-C-C-H, prebuilt X-X-ca-ha
  228     343     344     345         4       180.000       4.60240    2     ; N-C-C-C, guess (same as GAFF X -X -ca-ha)
  344     346     345     373         4       180.000       4.60240    2     ; C-C-C-H, prebuilt X-X-ca-ha
  341     345     346     374         4       180.000       4.60240    2     ; C-C-C-H, prebuilt X-X-ca-ha
  288     352     351     356         4       180.000       4.60240    2     ; N-C-C-H, guess (same as GAFF X -X -ca-ha)
  287     351     352     353         4       180.000       4.60240    2     ; N-C-C-C, prebuilt c3-c2-c2-na
  384     447     382     473         4       180.000       4.60240    2     ; C-C-N-C, prebuilt c2-c2-na-c3
  384     385     383     446         4       180.000       4.60240    2     ; C-C-N-C, guess (same as GAFF X -X -ca-ha)
  382     383     384     421         4       180.000       4.60240    2     ; N-N-C-C, guess (same as GAFF X -X -ca-ha)
  383     386     385     390         4       180.000       4.60240    2     ; N-C-C-C, guess (same as GAFF X -X -ca-ha)
  385     387     386     452         4       180.000       4.60240    2     ; C-C-C-H, prebuilt X-X-ca-ha
  386     388     387     453         4       180.000       4.60240    2     ; C-C-C-H, prebuilt X-X-ca-ha
  387     389     388     391         4       180.000       4.60240    2     ; C-C-C-N, guess (same as GAFF X -X -ca-ha)
  388     390     389     455         4       180.000       4.60240    2     ; C-C-C-H, prebuilt X-X-ca-ha
  385     389     390     454         4       180.000       4.60240    2     ; C-C-C-H, prebuilt X-X-ca-ha
  388     392     391     395         4       180.000       4.60240    2     ; C-C-N-C, guess (same as GAFF X -X -ca-ha)
  391     393     392     416         4       180.000      43.93200    2     ; N-C-C-O, prebuilt X-X-c-o
  392     394     393     397         4       180.000       4.60240    2     ; C-C-C-C, guess (same as GAFF X -X -ca-ha)
  393     395     394     400         4       180.000       4.60240    2     ; C-C-C-C, guess (same as GAFF X -X -ca-ha)
  391     394     395     396         4       180.000      43.93200    2     ; N-C-C-O, prebuilt X-X-c-o
  393     398     397     456         4       180.000       4.60240    2     ; C-C-C-H, prebuilt X-X-ca-ha
  397     399     398     407         4       180.000       4.60240    2     ; C-C-C-C, prebuilt ca-ca-ca-c3
  398     400     399     457         4       180.000       4.60240    2     ; C-C-C-H, prebuilt X-X-ca-ha
  394     399     400     458         4       180.000       4.60240    2     ; C-C-C-H, prebuilt X-X-ca-ha
  402     404     401     407         4       180.000       4.60240    2     ; C-C-C-C, prebuilt ca-ca-ca-c3
  401     403     402     460         4       180.000       4.60240    2     ; C-C-C-H, prebuilt X-X-ca-ha
  402     405     403     417         4       180.000       4.60240    2     ; C-C-C-C, guess (same as GAFF X -X -ca-ha)
  401     406     404     459         4       180.000       4.60240    2     ; C-C-C-H, prebuilt X-X-ca-ha
  403     406     405     419         4       180.000       4.60240    2     ; C-C-C-C, guess (same as GAFF X -X -ca-ha)
  404     405     406     461         4       180.000       4.60240    2     ; C-C-C-H, prebuilt X-X-ca-ha
  403     418     417     462         4       180.000      43.93200    2     ; C-N-C-O, prebuilt X-X-c-o
  417     419     418     534         4       180.000       4.60240    2     ; C-C-N-C, guess (same as GAFF X -X -ca-ha)
  405     418     419     420         4       180.000      43.93200    2     ; C-N-C-O, prebuilt X-X-c-o
  384     422     421     423         4       180.000       4.60240    2     ; C-C-C-C, prebuilt ca-ca-ca-c2
  421     424     422     463         4       180.000       4.60240    2     ; C-C-C-H, prebuilt X-X-ca-ha
  421     425     423     465         4       180.000       4.60240    2     ; C-C-C-H, prebuilt X-X-ca-ha
  422     426     424     464         4       180.000       4.60240    2     ; C-C-C-H, prebuilt X-X-ca-ha
  423     426     425     471         4       180.000       4.60240    2     ; C-C-C-H, prebuilt X-X-ca-ha
  424     425     426     427         4       180.000       4.60240    2     ; C-C-C-C, prebuilt ca-ca-ca-c2
  426     428     427     429         4       180.000       4.60240    2     ; C-N-C-N, guess (same as GAFF X -X -ca-ha)
  427     430     428     436         4       180.000       4.60240    2     ; C-C-N-C, guess (same as GAFF X -X -ca-ha)
  427     431     429     432         4       180.000       4.60240    2     ; C-C-N-C, prebuilt c2-c2-na-c3
  428     431     430     470         4       180.000       4.60240    2     ; N-C-C-H, guess (same as GAFF X -X -ca-ha)
  429     430     431     442         4       180.000       4.60240    2     ; N-C-C-C, prebuilt c3-c2-c2-na
  428     437     436     441         4       180.000       4.60240    2     ; N-C-C-C, guess (same as GAFF X -X -ca-ha)
  436     438     437     467         4       180.000       4.60240    2     ; C-C-C-H, prebuilt X-X-ca-ha
  437     439     438     466         4       180.000       4.60240    2     ; C-C-C-H, prebuilt X-X-ca-ha
  323     438     439     440         4       180.000       4.60240    2     ; N-C-C-C, guess (same as GAFF X -X -ca-ha)
  439     441     440     468         4       180.000       4.60240    2     ; C-C-C-H, prebuilt X-X-ca-ha
  436     440     441     469         4       180.000       4.60240    2     ; C-C-C-H, prebuilt X-X-ca-ha
  383     447     446     451         4       180.000       4.60240    2     ; N-C-C-H, guess (same as GAFF X -X -ca-ha)
  382     446     447     448         4       180.000       4.60240    2     ; N-C-C-C, prebuilt c3-c2-c2-na
  479     542     477     568         4       180.000       4.60240    2     ; C-C-N-C, prebuilt c2-c2-na-c3
  479     480     478     541         4       180.000       4.60240    2     ; C-C-N-C, guess (same as GAFF X -X -ca-ha)
  477     478     479     516         4       180.000       4.60240    2     ; N-N-C-C, guess (same as GAFF X -X -ca-ha)
  478     481     480     485         4       180.000       4.60240    2     ; N-C-C-C, guess (same as GAFF X -X -ca-ha)
  480     482     481     547         4       180.000       4.60240    2     ; C-C-C-H, prebuilt X-X-ca-ha
  481     483     482     548         4       180.000       4.60240    2     ; C-C-C-H, prebuilt X-X-ca-ha
  482     484     483     486         4       180.000       4.60240    2     ; C-C-C-N, guess (same as GAFF X -X -ca-ha)
  483     485     484     550         4       180.000       4.60240    2     ; C-C-C-H, prebuilt X-X-ca-ha
  480     484     485     549         4       180.000       4.60240    2     ; C-C-C-H, prebuilt X-X-ca-ha
  483     487     486     490         4       180.000       4.60240    2     ; C-C-N-C, guess (same as GAFF X -X -ca-ha)
  486     488     487     511         4       180.000      43.93200    2     ; N-C-C-O, prebuilt X-X-c-o
  487     489     488     492         4       180.000       4.60240    2     ; C-C-C-C, guess (same as GAFF X -X -ca-ha)
  488     490     489     495         4       180.000       4.60240    2     ; C-C-C-C, guess (same as GAFF X -X -ca-ha)
  486     489     490     491         4       180.000      43.93200    2     ; N-C-C-O, prebuilt X-X-c-o
  488     493     492     551         4       180.000       4.60240    2     ; C-C-C-H, prebuilt X-X-ca-ha
  492     494     493     502         4       180.000       4.60240    2     ; C-C-C-C, prebuilt ca-ca-ca-c3
  493     495     494     552         4       180.000       4.60240    2     ; C-C-C-H, prebuilt X-X-ca-ha
  489     494     495     553         4       180.000       4.60240    2     ; C-C-C-H, prebuilt X-X-ca-ha
  497     499     496     502         4       180.000       4.60240    2     ; C-C-C-C, prebuilt ca-ca-ca-c3
  496     498     497     555         4       180.000       4.60240    2     ; C-C-C-H, prebuilt X-X-ca-ha
  497     500     498     512         4       180.000       4.60240    2     ; C-C-C-C, guess (same as GAFF X -X -ca-ha)
  496     501     499     554         4       180.000       4.60240    2     ; C-C-C-H, prebuilt X-X-ca-ha
  498     501     500     514         4       180.000       4.60240    2     ; C-C-C-C, guess (same as GAFF X -X -ca-ha)
  499     500     501     556         4       180.000       4.60240    2     ; C-C-C-H, prebuilt X-X-ca-ha
  498     513     512     557         4       180.000      43.93200    2     ; C-N-C-O, prebuilt X-X-c-o
  512     514     513     629         4       180.000       4.60240    2     ; C-C-N-C, guess (same as GAFF X -X -ca-ha)
  500     513     514     515         4       180.000      43.93200    2     ; C-N-C-O, prebuilt X-X-c-o
  479     517     516     518         4       180.000       4.60240    2     ; C-C-C-C, prebuilt ca-ca-ca-c2
  516     519     517     558         4       180.000       4.60240    2     ; C-C-C-H, prebuilt X-X-ca-ha
  516     520     518     560         4       180.000       4.60240    2     ; C-C-C-H, prebuilt X-X-ca-ha
  517     521     519     559         4       180.000       4.60240    2     ; C-C-C-H, prebuilt X-X-ca-ha
  518     521     520     566         4       180.000       4.60240    2     ; C-C-C-H, prebuilt X-X-ca-ha
  519     520     521     522         4       180.000       4.60240    2     ; C-C-C-C, prebuilt ca-ca-ca-c2
  521     523     522     524         4       180.000       4.60240    2     ; C-N-C-N, guess (same as GAFF X -X -ca-ha)
  522     525     523     531         4       180.000       4.60240    2     ; C-C-N-C, guess (same as GAFF X -X -ca-ha)
  522     526     524     527         4       180.000       4.60240    2     ; C-C-N-C, prebuilt c2-c2-na-c3
  523     526     525     565         4       180.000       4.60240    2     ; N-C-C-H, guess (same as GAFF X -X -ca-ha)
  524     525     526     537         4       180.000       4.60240    2     ; N-C-C-C, prebuilt c3-c2-c2-na
  523     532     531     536         4       180.000       4.60240    2     ; N-C-C-C, guess (same as GAFF X -X -ca-ha)
  531     533     532     562         4       180.000       4.60240    2     ; C-C-C-H, prebuilt X-X-ca-ha
  532     534     533     561         4       180.000       4.60240    2     ; C-C-C-H, prebuilt X-X-ca-ha
  418     533     534     535         4       180.000       4.60240    2     ; N-C-C-C, guess (same as GAFF X -X -ca-ha)
  534     536     535     563         4       180.000       4.60240    2     ; C-C-C-H, prebuilt X-X-ca-ha
  531     535     536     564         4       180.000       4.60240    2     ; C-C-C-H, prebuilt X-X-ca-ha
  478     542     541     546         4       180.000       4.60240    2     ; N-C-C-H, guess (same as GAFF X -X -ca-ha)
  477     541     542     543         4       180.000       4.60240    2     ; N-C-C-C, prebuilt c3-c2-c2-na
  574     637     572     663         4       180.000       4.60240    2     ; C-C-N-C, prebuilt c2-c2-na-c3
  574     575     573     636         4       180.000       4.60240    2     ; C-C-N-C, guess (same as GAFF X -X -ca-ha)
  572     573     574     611         4       180.000       4.60240    2     ; N-N-C-C, guess (same as GAFF X -X -ca-ha)
  573     576     575     580         4       180.000       4.60240    2     ; N-C-C-C, guess (same as GAFF X -X -ca-ha)
  575     577     576     642         4       180.000       4.60240    2     ; C-C-C-H, prebuilt X-X-ca-ha
  576     578     577     643         4       180.000       4.60240    2     ; C-C-C-H, prebuilt X-X-ca-ha
  577     579     578     581         4       180.000       4.60240    2     ; C-C-C-N, guess (same as GAFF X -X -ca-ha)
  578     580     579     645         4       180.000       4.60240    2     ; C-C-C-H, prebuilt X-X-ca-ha
  575     579     580     644         4       180.000       4.60240    2     ; C-C-C-H, prebuilt X-X-ca-ha
  578     582     581     585         4       180.000       4.60240    2     ; C-C-N-C, guess (same as GAFF X -X -ca-ha)
  581     583     582     606         4       180.000      43.93200    2     ; N-C-C-O, prebuilt X-X-c-o
  582     584     583     587         4       180.000       4.60240    2     ; C-C-C-C, guess (same as GAFF X -X -ca-ha)
  583     585     584     590         4       180.000       4.60240    2     ; C-C-C-C, guess (same as GAFF X -X -ca-ha)
  581     584     585     586         4       180.000      43.93200    2     ; N-C-C-O, prebuilt X-X-c-o
  583     588     587     646         4       180.000       4.60240    2     ; C-C-C-H, prebuilt X-X-ca-ha
  587     589     588     597         4       180.000       4.60240    2     ; C-C-C-C, prebuilt ca-ca-ca-c3
  588     590     589     647         4       180.000       4.60240    2     ; C-C-C-H, prebuilt X-X-ca-ha
  584     589     590     648         4       180.000       4.60240    2     ; C-C-C-H, prebuilt X-X-ca-ha
  592     594     591     597         4       180.000       4.60240    2     ; C-C-C-C, prebuilt ca-ca-ca-c3
  591     593     592     650         4       180.000       4.60240    2     ; C-C-C-H, prebuilt X-X-ca-ha
  592     595     593     607         4       180.000       4.60240    2     ; C-C-C-C, guess (same as GAFF X -X -ca-ha)
  591     596     594     649         4       180.000       4.60240    2     ; C-C-C-H, prebuilt X-X-ca-ha
  593     596     595     609         4       180.000       4.60240    2     ; C-C-C-C, guess (same as GAFF X -X -ca-ha)
  594     595     596     651         4       180.000       4.60240    2     ; C-C-C-H, prebuilt X-X-ca-ha
  593     608     607     652         4       180.000      43.93200    2     ; C-N-C-O, prebuilt X-X-c-o
  607     609     608     724         4       180.000       4.60240    2     ; C-C-N-C, guess (same as GAFF X -X -ca-ha)
  595     608     609     610         4       180.000      43.93200    2     ; C-N-C-O, prebuilt X-X-c-o
  574     612     611     613         4       180.000       4.60240    2     ; C-C-C-C, prebuilt ca-ca-ca-c2
  611     614     612     653         4       180.000       4.60240    2     ; C-C-C-H, prebuilt X-X-ca-ha
  611     615     613     655         4       180.000       4.60240    2     ; C-C-C-H, prebuilt X-X-ca-ha
  612     616     614     654         4       180.000       4.60240    2     ; C-C-C-H, prebuilt X-X-ca-ha
  613     616     615     661         4       180.000       4.60240    2     ; C-C-C-H, prebuilt X-X-ca-ha
  614     615     616     617         4       180.000       4.60240    2     ; C-C-C-C, prebuilt ca-ca-ca-c2
  616     618     617     619         4       180.000       4.60240    2     ; C-N-C-N, guess (same as GAFF X -X -ca-ha)
  617     620     618     626         4       180.000       4.60240    2     ; C-C-N-C, guess (same as GAFF X -X -ca-ha)
  617     621     619     622         4       180.000       4.60240    2     ; C-C-N-C, prebuilt c2-c2-na-c3
  618     621     620     660         4       180.000       4.60240    2     ; N-C-C-H, guess (same as GAFF X -X -ca-ha)
  619     620     621     632         4       180.000       4.60240    2     ; N-C-C-C, prebuilt c3-c2-c2-na
  618     627     626     631         4       180.000       4.60240    2     ; N-C-C-C, guess (same as GAFF X -X -ca-ha)
  626     628     627     657         4       180.000       4.60240    2     ; C-C-C-H, prebuilt X-X-ca-ha
  627     629     628     656         4       180.000       4.60240    2     ; C-C-C-H, prebuilt X-X-ca-ha
  513     628     629     630         4       180.000       4.60240    2     ; N-C-C-C, guess (same as GAFF X -X -ca-ha)
  629     631     630     658         4       180.000       4.60240    2     ; C-C-C-H, prebuilt X-X-ca-ha
  626     630     631     659         4       180.000       4.60240    2     ; C-C-C-H, prebuilt X-X-ca-ha
  573     637     636     641         4       180.000       4.60240    2     ; N-C-C-H, guess (same as GAFF X -X -ca-ha)
  572     636     637     638         4       180.000       4.60240    2     ; N-C-C-C, prebuilt c3-c2-c2-na
  669     732     667     758         4       180.000       4.60240    2     ; C-C-N-C, prebuilt c2-c2-na-c3
  669     670     668     731         4       180.000       4.60240    2     ; C-C-N-C, guess (same as GAFF X -X -ca-ha)
  667     668     669     706         4       180.000       4.60240    2     ; N-N-C-C, guess (same as GAFF X -X -ca-ha)
  668     671     670     675         4       180.000       4.60240    2     ; N-C-C-C, guess (same as GAFF X -X -ca-ha)
  670     672     671     737         4       180.000       4.60240    2     ; C-C-C-H, prebuilt X-X-ca-ha
  671     673     672     738         4       180.000       4.60240    2     ; C-C-C-H, prebuilt X-X-ca-ha
  672     674     673     676         4       180.000       4.60240    2     ; C-C-C-N, guess (same as GAFF X -X -ca-ha)
  673     675     674     740         4       180.000       4.60240    2     ; C-C-C-H, prebuilt X-X-ca-ha
  670     674     675     739         4       180.000       4.60240    2     ; C-C-C-H, prebuilt X-X-ca-ha
  673     677     676     680         4       180.000       4.60240    2     ; C-C-N-C, guess (same as GAFF X -X -ca-ha)
  676     678     677     701         4       180.000      43.93200    2     ; N-C-C-O, prebuilt X-X-c-o
  677     679     678     682         4       180.000       4.60240    2     ; C-C-C-C, guess (same as GAFF X -X -ca-ha)
  678     680     679     685         4       180.000       4.60240    2     ; C-C-C-C, guess (same as GAFF X -X -ca-ha)
  676     679     680     681         4       180.000      43.93200    2     ; N-C-C-O, prebuilt X-X-c-o
  678     683     682     741         4       180.000       4.60240    2     ; C-C-C-H, prebuilt X-X-ca-ha
  682     684     683     692         4       180.000       4.60240    2     ; C-C-C-C, prebuilt ca-ca-ca-c3
  683     685     684     742         4       180.000       4.60240    2     ; C-C-C-H, prebuilt X-X-ca-ha
  679     684     685     743         4       180.000       4.60240    2     ; C-C-C-H, prebuilt X-X-ca-ha
  687     689     686     692         4       180.000       4.60240    2     ; C-C-C-C, prebuilt ca-ca-ca-c3
  686     688     687     745         4       180.000       4.60240    2     ; C-C-C-H, prebuilt X-X-ca-ha
  687     690     688     702         4       180.000       4.60240    2     ; C-C-C-C, guess (same as GAFF X -X -ca-ha)
  686     691     689     744         4       180.000       4.60240    2     ; C-C-C-H, prebuilt X-X-ca-ha
  688     691     690     704         4       180.000       4.60240    2     ; C-C-C-C, guess (same as GAFF X -X -ca-ha)
  689     690     691     746         4       180.000       4.60240    2     ; C-C-C-H, prebuilt X-X-ca-ha
  688     703     702     747         4       180.000      43.93200    2     ; C-N-C-O, prebuilt X-X-c-o
  702     704     703     819         4       180.000       4.60240    2     ; C-C-N-C, guess (same as GAFF X -X -ca-ha)
  690     703     704     705         4       180.000      43.93200    2     ; C-N-C-O, prebuilt X-X-c-o
  669     707     706     708         4       180.000       4.60240    2     ; C-C-C-C, prebuilt ca-ca-ca-c2
  706     709     707     748         4       180.000       4.60240    2     ; C-C-C-H, prebuilt X-X-ca-ha
  706     710     708     750         4       180.000       4.60240    2     ; C-C-C-H, prebuilt X-X-ca-ha
  707     711     709     749         4       180.000       4.60240    2     ; C-C-C-H, prebuilt X-X-ca-ha
  708     711     710     756         4       180.000       4.60240    2     ; C-C-C-H, prebuilt X-X-ca-ha
  709     710     711     712         4       180.000       4.60240    2     ; C-C-C-C, prebuilt ca-ca-ca-c2
  711     713     712     714         4       180.000       4.60240    2     ; C-N-C-N, guess (same as GAFF X -X -ca-ha)
  712     715     713     721         4       180.000       4.60240    2     ; C-C-N-C, guess (same as GAFF X -X -ca-ha)
  712     716     714     717         4       180.000       4.60240    2     ; C-C-N-C, prebuilt c2-c2-na-c3
  713     716     715     755         4       180.000       4.60240    2     ; N-C-C-H, guess (same as GAFF X -X -ca-ha)
  714     715     716     727         4       180.000       4.60240    2     ; N-C-C-C, prebuilt c3-c2-c2-na
  713     722     721     726         4       180.000       4.60240    2     ; N-C-C-C, guess (same as GAFF X -X -ca-ha)
  721     723     722     752         4       180.000       4.60240    2     ; C-C-C-H, prebuilt X-X-ca-ha
  722     724     723     751         4       180.000       4.60240    2     ; C-C-C-H, prebuilt X-X-ca-ha
  608     723     724     725         4       180.000       4.60240    2     ; N-C-C-C, guess (same as GAFF X -X -ca-ha)
  724     726     725     753         4       180.000       4.60240    2     ; C-C-C-H, prebuilt X-X-ca-ha
  721     725     726     754         4       180.000       4.60240    2     ; C-C-C-H, prebuilt X-X-ca-ha
  668     732     731     736         4       180.000       4.60240    2     ; N-C-C-H, guess (same as GAFF X -X -ca-ha)
  667     731     732     733         4       180.000       4.60240    2     ; N-C-C-C, prebuilt c3-c2-c2-na
  764     827     762     853         4       180.000       4.60240    2     ; C-C-N-C, prebuilt c2-c2-na-c3
  764     765     763     826         4       180.000       4.60240    2     ; C-C-N-C, guess (same as GAFF X -X -ca-ha)
  762     763     764     801         4       180.000       4.60240    2     ; N-N-C-C, guess (same as GAFF X -X -ca-ha)
  763     766     765     770         4       180.000       4.60240    2     ; N-C-C-C, guess (same as GAFF X -X -ca-ha)
  765     767     766     832         4       180.000       4.60240    2     ; C-C-C-H, prebuilt X-X-ca-ha
  766     768     767     833         4       180.000       4.60240    2     ; C-C-C-H, prebuilt X-X-ca-ha
  767     769     768     771         4       180.000       4.60240    2     ; C-C-C-N, guess (same as GAFF X -X -ca-ha)
  768     770     769     835         4       180.000       4.60240    2     ; C-C-C-H, prebuilt X-X-ca-ha
  765     769     770     834         4       180.000       4.60240    2     ; C-C-C-H, prebuilt X-X-ca-ha
  768     772     771     775         4       180.000       4.60240    2     ; C-C-N-C, guess (same as GAFF X -X -ca-ha)
  771     773     772     796         4       180.000      43.93200    2     ; N-C-C-O, prebuilt X-X-c-o
  772     774     773     777         4       180.000       4.60240    2     ; C-C-C-C, guess (same as GAFF X -X -ca-ha)
  773     775     774     780         4       180.000       4.60240    2     ; C-C-C-C, guess (same as GAFF X -X -ca-ha)
  771     774     775     776         4       180.000      43.93200    2     ; N-C-C-O, prebuilt X-X-c-o
  773     778     777     836         4       180.000       4.60240    2     ; C-C-C-H, prebuilt X-X-ca-ha
  777     779     778     787         4       180.000       4.60240    2     ; C-C-C-C, prebuilt ca-ca-ca-c3
  778     780     779     837         4       180.000       4.60240    2     ; C-C-C-H, prebuilt X-X-ca-ha
  774     779     780     838         4       180.000       4.60240    2     ; C-C-C-H, prebuilt X-X-ca-ha
  782     784     781     787         4       180.000       4.60240    2     ; C-C-C-C, prebuilt ca-ca-ca-c3
  781     783     782     840         4       180.000       4.60240    2     ; C-C-C-H, prebuilt X-X-ca-ha
  782     785     783     797         4       180.000       4.60240    2     ; C-C-C-C, guess (same as GAFF X -X -ca-ha)
  781     786     784     839         4       180.000       4.60240    2     ; C-C-C-H, prebuilt X-X-ca-ha
  783     786     785     799         4       180.000       4.60240    2     ; C-C-C-C, guess (same as GAFF X -X -ca-ha)
  784     785     786     841         4       180.000       4.60240    2     ; C-C-C-H, prebuilt X-X-ca-ha
  783     798     797     842         4       180.000      43.93200    2     ; C-N-C-O, prebuilt X-X-c-o
  797     799     798     914         4       180.000       4.60240    2     ; C-C-N-C, guess (same as GAFF X -X -ca-ha)
  785     798     799     800         4       180.000      43.93200    2     ; C-N-C-O, prebuilt X-X-c-o
  764     802     801     803         4       180.000       4.60240    2     ; C-C-C-C, prebuilt ca-ca-ca-c2
  801     804     802     843         4       180.000       4.60240    2     ; C-C-C-H, prebuilt X-X-ca-ha
  801     805     803     845         4       180.000       4.60240    2     ; C-C-C-H, prebuilt X-X-ca-ha
  802     806     804     844         4       180.000       4.60240    2     ; C-C-C-H, prebuilt X-X-ca-ha
  803     806     805     851         4       180.000       4.60240    2     ; C-C-C-H, prebuilt X-X-ca-ha
  804     805     806     807         4       180.000       4.60240    2     ; C-C-C-C, prebuilt ca-ca-ca-c2
  806     808     807     809         4       180.000       4.60240    2     ; C-N-C-N, guess (same as GAFF X -X -ca-ha)
  807     810     808     816         4       180.000       4.60240    2     ; C-C-N-C, guess (same as GAFF X -X -ca-ha)
  807     811     809     812         4       180.000       4.60240    2     ; C-C-N-C, prebuilt c2-c2-na-c3
  808     811     810     850         4       180.000       4.60240    2     ; N-C-C-H, guess (same as GAFF X -X -ca-ha)
  809     810     811     822         4       180.000       4.60240    2     ; N-C-C-C, prebuilt c3-c2-c2-na
  808     817     816     821         4       180.000       4.60240    2     ; N-C-C-C, guess (same as GAFF X -X -ca-ha)
  816     818     817     847         4       180.000       4.60240    2     ; C-C-C-H, prebuilt X-X-ca-ha
  817     819     818     846         4       180.000       4.60240    2     ; C-C-C-H, prebuilt X-X-ca-ha
  703     818     819     820         4       180.000       4.60240    2     ; N-C-C-C, guess (same as GAFF X -X -ca-ha)
  819     821     820     848         4       180.000       4.60240    2     ; C-C-C-H, prebuilt X-X-ca-ha
  816     820     821     849         4       180.000       4.60240    2     ; C-C-C-H, prebuilt X-X-ca-ha
  763     827     826     831         4       180.000       4.60240    2     ; N-C-C-H, guess (same as GAFF X -X -ca-ha)
  762     826     827     828         4       180.000       4.60240    2     ; N-C-C-C, prebuilt c3-c2-c2-na
  859     922     857     948         4       180.000       4.60240    2     ; C-C-N-C, prebuilt c2-c2-na-c3
  859     860     858     921         4       180.000       4.60240    2     ; C-C-N-C, guess (same as GAFF X -X -ca-ha)
  857     858     859     896         4       180.000       4.60240    2     ; N-N-C-C, guess (same as GAFF X -X -ca-ha)
  858     861     860     865         4       180.000       4.60240    2     ; N-C-C-C, guess (same as GAFF X -X -ca-ha)
  860     862     861     927         4       180.000       4.60240    2     ; C-C-C-H, prebuilt X-X-ca-ha
  861     863     862     928         4       180.000       4.60240    2     ; C-C-C-H, prebuilt X-X-ca-ha
  862     864     863     866         4       180.000       4.60240    2     ; C-C-C-N, guess (same as GAFF X -X -ca-ha)
  863     865     864     930         4       180.000       4.60240    2     ; C-C-C-H, prebuilt X-X-ca-ha
  860     864     865     929         4       180.000       4.60240    2     ; C-C-C-H, prebuilt X-X-ca-ha
  863     867     866     870         4       180.000       4.60240    2     ; C-C-N-C, guess (same as GAFF X -X -ca-ha)
  866     868     867     891         4       180.000      43.93200    2     ; N-C-C-O, prebuilt X-X-c-o
  867     869     868     872         4       180.000       4.60240    2     ; C-C-C-C, guess (same as GAFF X -X -ca-ha)
  868     870     869     875         4       180.000       4.60240    2     ; C-C-C-C, guess (same as GAFF X -X -ca-ha)
  866     869     870     871         4       180.000      43.93200    2     ; N-C-C-O, prebuilt X-X-c-o
  868     873     872     931         4       180.000       4.60240    2     ; C-C-C-H, prebuilt X-X-ca-ha
  872     874     873     882         4       180.000       4.60240    2     ; C-C-C-C, prebuilt ca-ca-ca-c3
  873     875     874     932         4       180.000       4.60240    2     ; C-C-C-H, prebuilt X-X-ca-ha
  869     874     875     933         4       180.000       4.60240    2     ; C-C-C-H, prebuilt X-X-ca-ha
  877     879     876     882         4       180.000       4.60240    2     ; C-C-C-C, prebuilt ca-ca-ca-c3
  876     878     877     935         4       180.000       4.60240    2     ; C-C-C-H, prebuilt X-X-ca-ha
  877     880     878     892         4       180.000       4.60240    2     ; C-C-C-C, guess (same as GAFF X -X -ca-ha)
  876     881     879     934         4       180.000       4.60240    2     ; C-C-C-H, prebuilt X-X-ca-ha
  878     881     880     894         4       180.000       4.60240    2     ; C-C-C-C, guess (same as GAFF X -X -ca-ha)
  879     880     881     936         4       180.000       4.60240    2     ; C-C-C-H, prebuilt X-X-ca-ha
  878     893     892     937         4       180.000      43.93200    2     ; C-N-C-O, prebuilt X-X-c-o
  892     894     893    1009         4       180.000       4.60240    2     ; C-C-N-C, guess (same as GAFF X -X -ca-ha)
  880     893     894     895         4       180.000      43.93200    2     ; C-N-C-O, prebuilt X-X-c-o
  859     897     896     898         4       180.000       4.60240    2     ; C-C-C-C, prebuilt ca-ca-ca-c2
  896     899     897     938         4       180.000       4.60240    2     ; C-C-C-H, prebuilt X-X-ca-ha
  896     900     898     940         4       180.000       4.60240    2     ; C-C-C-H, prebuilt X-X-ca-ha
  897     901     899     939         4       180.000       4.60240    2     ; C-C-C-H, prebuilt X-X-ca-ha
  898     901     900     946         4       180.000       4.60240    2     ; C-C-C-H, prebuilt X-X-ca-ha
  899     900     901     902         4       180.000       4.60240    2     ; C-C-C-C, prebuilt ca-ca-ca-c2
  901     903     902     904         4       180.000       4.60240    2     ; C-N-C-N, guess (same as GAFF X -X -ca-ha)
  902     905     903     911         4       180.000       4.60240    2     ; C-C-N-C, guess (same as GAFF X -X -ca-ha)
  902     906     904     907         4       180.000       4.60240    2     ; C-C-N-C, prebuilt c2-c2-na-c3
  903     906     905     945         4       180.000       4.60240    2     ; N-C-C-H, guess (same as GAFF X -X -ca-ha)
  904     905     906     917         4       180.000       4.60240    2     ; N-C-C-C, prebuilt c3-c2-c2-na
  903     912     911     916         4       180.000       4.60240    2     ; N-C-C-C, guess (same as GAFF X -X -ca-ha)
  911     913     912     942         4       180.000       4.60240    2     ; C-C-C-H, prebuilt X-X-ca-ha
  912     914     913     941         4       180.000       4.60240    2     ; C-C-C-H, prebuilt X-X-ca-ha
  798     913     914     915         4       180.000       4.60240    2     ; N-C-C-C, guess (same as GAFF X -X -ca-ha)
  914     916     915     943         4       180.000       4.60240    2     ; C-C-C-H, prebuilt X-X-ca-ha
  911     915     916     944         4       180.000       4.60240    2     ; C-C-C-H, prebuilt X-X-ca-ha
  858     922     921     926         4       180.000       4.60240    2     ; N-C-C-H, guess (same as GAFF X -X -ca-ha)
  857     921     922     923         4       180.000       4.60240    2     ; N-C-C-C, prebuilt c3-c2-c2-na
  954    1017     952    1043         4       180.000       4.60240    2     ; C-C-N-C, prebuilt c2-c2-na-c3
  954     955     953    1016         4       180.000       4.60240    2     ; C-C-N-C, guess (same as GAFF X -X -ca-ha)
  952     953     954     991         4       180.000       4.60240    2     ; N-N-C-C, guess (same as GAFF X -X -ca-ha)
  953     956     955     960         4       180.000       4.60240    2     ; N-C-C-C, guess (same as GAFF X -X -ca-ha)
  955     957     956    1022         4       180.000       4.60240    2     ; C-C-C-H, prebuilt X-X-ca-ha
  956     958     957    1023         4       180.000       4.60240    2     ; C-C-C-H, prebuilt X-X-ca-ha
  957     959     958     961         4       180.000       4.60240    2     ; C-C-C-N, guess (same as GAFF X -X -ca-ha)
  958     960     959    1025         4       180.000       4.60240    2     ; C-C-C-H, prebuilt X-X-ca-ha
  955     959     960    1024         4       180.000       4.60240    2     ; C-C-C-H, prebuilt X-X-ca-ha
  958     962     961     965         4       180.000       4.60240    2     ; C-C-N-C, guess (same as GAFF X -X -ca-ha)
  961     963     962     986         4       180.000      43.93200    2     ; N-C-C-O, prebuilt X-X-c-o
  962     964     963     967         4       180.000       4.60240    2     ; C-C-C-C, guess (same as GAFF X -X -ca-ha)
  963     965     964     970         4       180.000       4.60240    2     ; C-C-C-C, guess (same as GAFF X -X -ca-ha)
  961     964     965     966         4       180.000      43.93200    2     ; N-C-C-O, prebuilt X-X-c-o
  963     968     967    1026         4       180.000       4.60240    2     ; C-C-C-H, prebuilt X-X-ca-ha
  967     969     968     977         4       180.000       4.60240    2     ; C-C-C-C, prebuilt ca-ca-ca-c3
  968     970     969    1027         4       180.000       4.60240    2     ; C-C-C-H, prebuilt X-X-ca-ha
  964     969     970    1028         4       180.000       4.60240    2     ; C-C-C-H, prebuilt X-X-ca-ha
  972     974     971     977         4       180.000       4.60240    2     ; C-C-C-C, prebuilt ca-ca-ca-c3
  971     973     972    1030         4       180.000       4.60240    2     ; C-C-C-H, prebuilt X-X-ca-ha
  972     975     973     987         4       180.000       4.60240    2     ; C-C-C-C, guess (same as GAFF X -X -ca-ha)
  971     976     974    1029         4       180.000       4.60240    2     ; C-C-C-H, prebuilt X-X-ca-ha
  973     976     975     989         4       180.000       4.60240    2     ; C-C-C-C, guess (same as GAFF X -X -ca-ha)
  974     975     976    1031         4       180.000       4.60240    2     ; C-C-C-H, prebuilt X-X-ca-ha
  973     988     987    1032         4       180.000      43.93200    2     ; C-N-C-O, prebuilt X-X-c-o
  987     989     988    1104         4       180.000       4.60240    2     ; C-C-N-C, guess (same as GAFF X -X -ca-ha)
  975     988     989     990         4       180.000      43.93200    2     ; C-N-C-O, prebuilt X-X-c-o
  954     992     991     993         4       180.000       4.60240    2     ; C-C-C-C, prebuilt ca-ca-ca-c2
  991     994     992    1033         4       180.000       4.60240    2     ; C-C-C-H, prebuilt X-X-ca-ha
  991     995     993    1035         4       180.000       4.60240    2     ; C-C-C-H, prebuilt X-X-ca-ha
  992     996     994    1034         4       180.000       4.60240    2     ; C-C-C-H, prebuilt X-X-ca-ha
  993     996     995    1041         4       180.000       4.60240    2     ; C-C-C-H, prebuilt X-X-ca-ha
  994     995     996     997         4       180.000       4.60240    2     ; C-C-C-C, prebuilt ca-ca-ca-c2
  996     998     997     999         4       180.000       4.60240    2     ; C-N-C-N, guess (same as GAFF X -X -ca-ha)
  997    1000     998    1006         4       180.000       4.60240    2     ; C-C-N-C, guess (same as GAFF X -X -ca-ha)
  997    1001     999    1002         4       180.000       4.60240    2     ; C-C-N-C, prebuilt c2-c2-na-c3
  998    1001    1000    1040         4       180.000       4.60240    2     ; N-C-C-H, guess (same as GAFF X -X -ca-ha)
  999    1000    1001    1012         4       180.000       4.60240    2     ; N-C-C-C, prebuilt c3-c2-c2-na
  998    1007    1006    1011         4       180.000       4.60240    2     ; N-C-C-C, guess (same as GAFF X -X -ca-ha)
 1006    1008    1007    1037         4       180.000       4.60240    2     ; C-C-C-H, prebuilt X-X-ca-ha
 1007    1009    1008    1036         4       180.000       4.60240    2     ; C-C-C-H, prebuilt X-X-ca-ha
  893    1008    1009    1010         4       180.000       4.60240    2     ; N-C-C-C, guess (same as GAFF X -X -ca-ha)
 1009    1011    1010    1038         4       180.000       4.60240    2     ; C-C-C-H, prebuilt X-X-ca-ha
 1006    1010    1011    1039         4       180.000       4.60240    2     ; C-C-C-H, prebuilt X-X-ca-ha
  953    1017    1016    1021         4       180.000       4.60240    2     ; N-C-C-H, guess (same as GAFF X -X -ca-ha)
  952    1016    1017    1018         4       180.000       4.60240    2     ; N-C-C-C, prebuilt c3-c2-c2-na
 1049    1112    1047    1138         4       180.000       4.60240    2     ; C-C-N-C, prebuilt c2-c2-na-c3
 1049    1050    1048    1111         4       180.000       4.60240    2     ; C-C-N-C, guess (same as GAFF X -X -ca-ha)
 1047    1048    1049    1086         4       180.000       4.60240    2     ; N-N-C-C, guess (same as GAFF X -X -ca-ha)
 1048    1051    1050    1055         4       180.000       4.60240    2     ; N-C-C-C, guess (same as GAFF X -X -ca-ha)
 1050    1052    1051    1117         4       180.000       4.60240    2     ; C-C-C-H, prebuilt X-X-ca-ha
 1051    1053    1052    1118         4       180.000       4.60240    2     ; C-C-C-H, prebuilt X-X-ca-ha
 1052    1054    1053    1056         4       180.000       4.60240    2     ; C-C-C-N, guess (same as GAFF X -X -ca-ha)
 1053    1055    1054    1120         4       180.000       4.60240    2     ; C-C-C-H, prebuilt X-X-ca-ha
 1050    1054    1055    1119         4       180.000       4.60240    2     ; C-C-C-H, prebuilt X-X-ca-ha
 1053    1057    1056    1060         4       180.000       4.60240    2     ; C-C-N-C, guess (same as GAFF X -X -ca-ha)
 1056    1058    1057    1081         4       180.000      43.93200    2     ; N-C-C-O, prebuilt X-X-c-o
 1057    1059    1058    1062         4       180.000       4.60240    2     ; C-C-C-C, guess (same as GAFF X -X -ca-ha)
 1058    1060    1059    1065         4       180.000       4.60240    2     ; C-C-C-C, guess (same as GAFF X -X -ca-ha)
 1056    1059    1060    1061         4       180.000      43.93200    2     ; N-C-C-O, prebuilt X-X-c-o
 1058    1063    1062    1121         4       180.000       4.60240    2     ; C-C-C-H, prebuilt X-X-ca-ha
 1062    1064    1063    1072         4       180.000       4.60240    2     ; C-C-C-C, prebuilt ca-ca-ca-c3
 1063    1065    1064    1122         4       180.000       4.60240    2     ; C-C-C-H, prebuilt X-X-ca-ha
 1059    1064    1065    1123         4       180.000       4.60240    2     ; C-C-C-H, prebuilt X-X-ca-ha
 1067    1069    1066    1072         4       180.000       4.60240    2     ; C-C-C-C, prebuilt ca-ca-ca-c3
 1066    1068    1067    1125         4       180.000       4.60240    2     ; C-C-C-H, prebuilt X-X-ca-ha
 1067    1070    1068    1082         4       180.000       4.60240    2     ; C-C-C-C, guess (same as GAFF X -X -ca-ha)
 1066    1071    1069    1124         4       180.000       4.60240    2     ; C-C-C-H, prebuilt X-X-ca-ha
 1068    1071    1070    1084         4       180.000       4.60240    2     ; C-C-C-C, guess (same as GAFF X -X -ca-ha)
 1069    1070    1071    1126         4       180.000       4.60240    2     ; C-C-C-H, prebuilt X-X-ca-ha
 1068    1083    1082    1127         4       180.000      43.93200    2     ; C-N-C-O, prebuilt X-X-c-o
 1082    1084    1083    1199         4       180.000       4.60240    2     ; C-C-N-C, guess (same as GAFF X -X -ca-ha)
 1070    1083    1084    1085         4       180.000      43.93200    2     ; C-N-C-O, prebuilt X-X-c-o
 1049    1087    1086    1088         4       180.000       4.60240    2     ; C-C-C-C, prebuilt ca-ca-ca-c2
 1086    1089    1087    1128         4       180.000       4.60240    2     ; C-C-C-H, prebuilt X-X-ca-ha
 1086    1090    1088    1130         4       180.000       4.60240    2     ; C-C-C-H, prebuilt X-X-ca-ha
 1087    1091    1089    1129         4       180.000       4.60240    2     ; C-C-C-H, prebuilt X-X-ca-ha
 1088    1091    1090    1136         4       180.000       4.60240    2     ; C-C-C-H, prebuilt X-X-ca-ha
 1089    1090    1091    1092         4       180.000       4.60240    2     ; C-C-C-C, prebuilt ca-ca-ca-c2
 1091    1093    1092    1094         4       180.000       4.60240    2     ; C-N-C-N, guess (same as GAFF X -X -ca-ha)
 1092    1095    1093    1101         4       180.000       4.60240    2     ; C-C-N-C, guess (same as GAFF X -X -ca-ha)
 1092    1096    1094    1097         4       180.000       4.60240    2     ; C-C-N-C, prebuilt c2-c2-na-c3
 1093    1096    1095    1135         4       180.000       4.60240    2     ; N-C-C-H, guess (same as GAFF X -X -ca-ha)
 1094    1095    1096    1107         4       180.000       4.60240    2     ; N-C-C-C, prebuilt c3-c2-c2-na
 1093    1102    1101    1106         4       180.000       4.60240    2     ; N-C-C-C, guess (same as GAFF X -X -ca-ha)
 1101    1103    1102    1132         4       180.000       4.60240    2     ; C-C-C-H, prebuilt X-X-ca-ha
 1102    1104    1103    1131         4       180.000       4.60240    2     ; C-C-C-H, prebuilt X-X-ca-ha
  988    1103    1104    1105         4       180.000       4.60240    2     ; N-C-C-C, guess (same as GAFF X -X -ca-ha)
 1104    1106    1105    1133         4       180.000       4.60240    2     ; C-C-C-H, prebuilt X-X-ca-ha
 1101    1105    1106    1134         4       180.000       4.60240    2     ; C-C-C-H, prebuilt X-X-ca-ha
 1048    1112    1111    1116         4       180.000       4.60240    2     ; N-C-C-H, guess (same as GAFF X -X -ca-ha)
 1047    1111    1112    1113         4       180.000       4.60240    2     ; N-C-C-C, prebuilt c3-c2-c2-na
 1144    1207    1142    1233         4       180.000       4.60240    2     ; C-C-N-C, prebuilt c2-c2-na-c3
 1144    1145    1143    1206         4       180.000       4.60240    2     ; C-C-N-C, guess (same as GAFF X -X -ca-ha)
 1142    1143    1144    1181         4       180.000       4.60240    2     ; N-N-C-C, guess (same as GAFF X -X -ca-ha)
 1143    1146    1145    1150         4       180.000       4.60240    2     ; N-C-C-C, guess (same as GAFF X -X -ca-ha)
 1145    1147    1146    1212         4       180.000       4.60240    2     ; C-C-C-H, prebuilt X-X-ca-ha
 1146    1148    1147    1213         4       180.000       4.60240    2     ; C-C-C-H, prebuilt X-X-ca-ha
 1147    1149    1148    1151         4       180.000       4.60240    2     ; C-C-C-N, guess (same as GAFF X -X -ca-ha)
 1148    1150    1149    1215         4       180.000       4.60240    2     ; C-C-C-H, prebuilt X-X-ca-ha
 1145    1149    1150    1214         4       180.000       4.60240    2     ; C-C-C-H, prebuilt X-X-ca-ha
 1148    1152    1151    1155         4       180.000       4.60240    2     ; C-C-N-C, guess (same as GAFF X -X -ca-ha)
 1151    1153    1152    1176         4       180.000      43.93200    2     ; N-C-C-O, prebuilt X-X-c-o
 1152    1154    1153    1157         4       180.000       4.60240    2     ; C-C-C-C, guess (same as GAFF X -X -ca-ha)
 1153    1155    1154    1160         4       180.000       4.60240    2     ; C-C-C-C, guess (same as GAFF X -X -ca-ha)
 1151    1154    1155    1156         4       180.000      43.93200    2     ; N-C-C-O, prebuilt X-X-c-o
 1153    1158    1157    1216         4       180.000       4.60240    2     ; C-C-C-H, prebuilt X-X-ca-ha
 1157    1159    1158    1167         4       180.000       4.60240    2     ; C-C-C-C, prebuilt ca-ca-ca-c3
 1158    1160    1159    1217         4       180.000       4.60240    2     ; C-C-C-H, prebuilt X-X-ca-ha
 1154    1159    1160    1218         4       180.000       4.60240    2     ; C-C-C-H, prebuilt X-X-ca-ha
 1162    1164    1161    1167         4       180.000       4.60240    2     ; C-C-C-C, prebuilt ca-ca-ca-c3
 1161    1163    1162    1220         4       180.000       4.60240    2     ; C-C-C-H, prebuilt X-X-ca-ha
 1162    1165    1163    1177         4       180.000       4.60240    2     ; C-C-C-C, guess (same as GAFF X -X -ca-ha)
 1161    1166    1164    1219         4       180.000       4.60240    2     ; C-C-C-H, prebuilt X-X-ca-ha
 1163    1166    1165    1179         4       180.000       4.60240    2     ; C-C-C-C, guess (same as GAFF X -X -ca-ha)
 1164    1165    1166    1221         4       180.000       4.60240    2     ; C-C-C-H, prebuilt X-X-ca-ha
 1163    1178    1177    1222         4       180.000      43.93200    2     ; C-N-C-O, prebuilt X-X-c-o
 1177    1179    1178    1294         4       180.000       4.60240    2     ; C-C-N-C, guess (same as GAFF X -X -ca-ha)
 1165    1178    1179    1180         4       180.000      43.93200    2     ; C-N-C-O, prebuilt X-X-c-o
 1144    1182    1181    1183         4       180.000       4.60240    2     ; C-C-C-C, prebuilt ca-ca-ca-c2
 1181    1184    1182    1223         4       180.000       4.60240    2     ; C-C-C-H, prebuilt X-X-ca-ha
 1181    1185    1183    1225         4       180.000       4.60240    2     ; C-C-C-H, prebuilt X-X-ca-ha
 1182    1186    1184    1224         4       180.000       4.60240    2     ; C-C-C-H, prebuilt X-X-ca-ha
 1183    1186    1185    1231         4       180.000       4.60240    2     ; C-C-C-H, prebuilt X-X-ca-ha
 1184    1185    1186    1187         4       180.000       4.60240    2     ; C-C-C-C, prebuilt ca-ca-ca-c2
 1186    1188    1187    1189         4       180.000       4.60240    2     ; C-N-C-N, guess (same as GAFF X -X -ca-ha)
 1187    1190    1188    1196         4       180.000       4.60240    2     ; C-C-N-C, guess (same as GAFF X -X -ca-ha)
 1187    1191    1189    1192         4       180.000       4.60240    2     ; C-C-N-C, prebuilt c2-c2-na-c3
 1188    1191    1190    1230         4       180.000       4.60240    2     ; N-C-C-H, guess (same as GAFF X -X -ca-ha)
 1189    1190    1191    1202         4       180.000       4.60240    2     ; N-C-C-C, prebuilt c3-c2-c2-na
 1188    1197    1196    1201         4       180.000       4.60240    2     ; N-C-C-C, guess (same as GAFF X -X -ca-ha)
 1196    1198    1197    1227         4       180.000       4.60240    2     ; C-C-C-H, prebuilt X-X-ca-ha
 1197    1199    1198    1226         4       180.000       4.60240    2     ; C-C-C-H, prebuilt X-X-ca-ha
 1083    1198    1199    1200         4       180.000       4.60240    2     ; N-C-C-C, guess (same as GAFF X -X -ca-ha)
 1199    1201    1200    1228         4       180.000       4.60240    2     ; C-C-C-H, prebuilt X-X-ca-ha
 1196    1200    1201    1229         4       180.000       4.60240    2     ; C-C-C-H, prebuilt X-X-ca-ha
 1143    1207    1206    1211         4       180.000       4.60240    2     ; N-C-C-H, guess (same as GAFF X -X -ca-ha)
 1142    1206    1207    1208         4       180.000       4.60240    2     ; N-C-C-C, prebuilt c3-c2-c2-na
 1239    1302    1237    1328         4       180.000       4.60240    2     ; C-C-N-C, prebuilt c2-c2-na-c3
 1239    1240    1238    1301         4       180.000       4.60240    2     ; C-C-N-C, guess (same as GAFF X -X -ca-ha)
 1237    1238    1239    1276         4       180.000       4.60240    2     ; N-N-C-C, guess (same as GAFF X -X -ca-ha)
 1238    1241    1240    1245         4       180.000       4.60240    2     ; N-C-C-C, guess (same as GAFF X -X -ca-ha)
 1240    1242    1241    1307         4       180.000       4.60240    2     ; C-C-C-H, prebuilt X-X-ca-ha
 1241    1243    1242    1308         4       180.000       4.60240    2     ; C-C-C-H, prebuilt X-X-ca-ha
 1242    1244    1243    1246         4       180.000       4.60240    2     ; C-C-C-N, guess (same as GAFF X -X -ca-ha)
 1243    1245    1244    1310         4       180.000       4.60240    2     ; C-C-C-H, prebuilt X-X-ca-ha
 1240    1244    1245    1309         4       180.000       4.60240    2     ; C-C-C-H, prebuilt X-X-ca-ha
 1243    1247    1246    1250         4       180.000       4.60240    2     ; C-C-N-C, guess (same as GAFF X -X -ca-ha)
 1246    1248    1247    1271         4       180.000      43.93200    2     ; N-C-C-O, prebuilt X-X-c-o
 1247    1249    1248    1252         4       180.000       4.60240    2     ; C-C-C-C, guess (same as GAFF X -X -ca-ha)
 1248    1250    1249    1255         4       180.000       4.60240    2     ; C-C-C-C, guess (same as GAFF X -X -ca-ha)
 1246    1249    1250    1251         4       180.000      43.93200    2     ; N-C-C-O, prebuilt X-X-c-o
 1248    1253    1252    1311         4       180.000       4.60240    2     ; C-C-C-H, prebuilt X-X-ca-ha
 1252    1254    1253    1262         4       180.000       4.60240    2     ; C-C-C-C, prebuilt ca-ca-ca-c3
 1253    1255    1254    1312         4       180.000       4.60240    2     ; C-C-C-H, prebuilt X-X-ca-ha
 1249    1254    1255    1313         4       180.000       4.60240    2     ; C-C-C-H, prebuilt X-X-ca-ha
 1257    1259    1256    1262         4       180.000       4.60240    2     ; C-C-C-C, prebuilt ca-ca-ca-c3
 1256    1258    1257    1315         4       180.000       4.60240    2     ; C-C-C-H, prebuilt X-X-ca-ha
 1257    1260    1258    1272         4       180.000       4.60240    2     ; C-C-C-C, guess (same as GAFF X -X -ca-ha)
 1256    1261    1259    1314         4       180.000       4.60240    2     ; C-C-C-H, prebuilt X-X-ca-ha
 1258    1261    1260    1274         4       180.000       4.60240    2     ; C-C-C-C, guess (same as GAFF X -X -ca-ha)
 1259    1260    1261    1316         4       180.000       4.60240    2     ; C-C-C-H, prebuilt X-X-ca-ha
 1258    1273    1272    1317         4       180.000      43.93200    2     ; C-N-C-O, prebuilt X-X-c-o
 1272    1274    1273    1389         4       180.000       4.60240    2     ; C-C-N-C, guess (same as GAFF X -X -ca-ha)
 1260    1273    1274    1275         4       180.000      43.93200    2     ; C-N-C-O, prebuilt X-X-c-o
 1239    1277    1276    1278         4       180.000       4.60240    2     ; C-C-C-C, prebuilt ca-ca-ca-c2
 1276    1279    1277    1318         4       180.000       4.60240    2     ; C-C-C-H, prebuilt X-X-ca-ha
 1276    1280    1278    1320         4       180.000       4.60240    2     ; C-C-C-H, prebuilt X-X-ca-ha
 1277    1281    1279    1319         4       180.000       4.60240    2     ; C-C-C-H, prebuilt X-X-ca-ha
 1278    1281    1280    1326         4       180.000       4.60240    2     ; C-C-C-H, prebuilt X-X-ca-ha
 1279    1280    1281    1282         4       180.000       4.60240    2     ; C-C-C-C, prebuilt ca-ca-ca-c2
 1281    1283    1282    1284         4       180.000       4.60240    2     ; C-N-C-N, guess (same as GAFF X -X -ca-ha)
 1282    1285    1283    1291         4       180.000       4.60240    2     ; C-C-N-C, guess (same as GAFF X -X -ca-ha)
 1282    1286    1284    1287         4       180.000       4.60240    2     ; C-C-N-C, prebuilt c2-c2-na-c3
 1283    1286    1285    1325         4       180.000       4.60240    2     ; N-C-C-H, guess (same as GAFF X -X -ca-ha)
 1284    1285    1286    1297         4       180.000       4.60240    2     ; N-C-C-C, prebuilt c3-c2-c2-na
 1283    1292    1291    1296         4       180.000       4.60240    2     ; N-C-C-C, guess (same as GAFF X -X -ca-ha)
 1291    1293    1292    1322         4       180.000       4.60240    2     ; C-C-C-H, prebuilt X-X-ca-ha
 1292    1294    1293    1321         4       180.000       4.60240    2     ; C-C-C-H, prebuilt X-X-ca-ha
 1178    1293    1294    1295         4       180.000       4.60240    2     ; N-C-C-C, guess (same as GAFF X -X -ca-ha)
 1294    1296    1295    1323         4       180.000       4.60240    2     ; C-C-C-H, prebuilt X-X-ca-ha
 1291    1295    1296    1324         4       180.000       4.60240    2     ; C-C-C-H, prebuilt X-X-ca-ha
 1238    1302    1301    1306         4       180.000       4.60240    2     ; N-C-C-H, guess (same as GAFF X -X -ca-ha)
 1237    1301    1302    1303         4       180.000       4.60240    2     ; N-C-C-C, prebuilt c3-c2-c2-na
 1334    1397    1332    1423         4       180.000       4.60240    2     ; C-C-N-C, prebuilt c2-c2-na-c3
 1334    1335    1333    1396         4       180.000       4.60240    2     ; C-C-N-C, guess (same as GAFF X -X -ca-ha)
 1332    1333    1334    1371         4       180.000       4.60240    2     ; N-N-C-C, guess (same as GAFF X -X -ca-ha)
 1333    1336    1335    1340         4       180.000       4.60240    2     ; N-C-C-C, guess (same as GAFF X -X -ca-ha)
 1335    1337    1336    1402         4       180.000       4.60240    2     ; C-C-C-H, prebuilt X-X-ca-ha
 1336    1338    1337    1403         4       180.000       4.60240    2     ; C-C-C-H, prebuilt X-X-ca-ha
 1337    1339    1338    1341         4       180.000       4.60240    2     ; C-C-C-N, guess (same as GAFF X -X -ca-ha)
 1338    1340    1339    1405         4       180.000       4.60240    2     ; C-C-C-H, prebuilt X-X-ca-ha
 1335    1339    1340    1404         4       180.000       4.60240    2     ; C-C-C-H, prebuilt X-X-ca-ha
 1338    1342    1341    1345         4       180.000       4.60240    2     ; C-C-N-C, guess (same as GAFF X -X -ca-ha)
 1341    1343    1342    1366         4       180.000      43.93200    2     ; N-C-C-O, prebuilt X-X-c-o
 1342    1344    1343    1347         4       180.000       4.60240    2     ; C-C-C-C, guess (same as GAFF X -X -ca-ha)
 1343    1345    1344    1350         4       180.000       4.60240    2     ; C-C-C-C, guess (same as GAFF X -X -ca-ha)
 1341    1344    1345    1346         4       180.000      43.93200    2     ; N-C-C-O, prebuilt X-X-c-o
 1343    1348    1347    1406         4       180.000       4.60240    2     ; C-C-C-H, prebuilt X-X-ca-ha
 1347    1349    1348    1357         4       180.000       4.60240    2     ; C-C-C-C, prebuilt ca-ca-ca-c3
 1348    1350    1349    1407         4       180.000       4.60240    2     ; C-C-C-H, prebuilt X-X-ca-ha
 1344    1349    1350    1408         4       180.000       4.60240    2     ; C-C-C-H, prebuilt X-X-ca-ha
 1352    1354    1351    1357         4       180.000       4.60240    2     ; C-C-C-C, prebuilt ca-ca-ca-c3
 1351    1353    1352    1410         4       180.000       4.60240    2     ; C-C-C-H, prebuilt X-X-ca-ha
 1352    1355    1353    1367         4       180.000       4.60240    2     ; C-C-C-C, guess (same as GAFF X -X -ca-ha)
 1351    1356    1354    1409         4       180.000       4.60240    2     ; C-C-C-H, prebuilt X-X-ca-ha
 1353    1356    1355    1369         4       180.000       4.60240    2     ; C-C-C-C, guess (same as GAFF X -X -ca-ha)
 1354    1355    1356    1411         4       180.000       4.60240    2     ; C-C-C-H, prebuilt X-X-ca-ha
 1353    1368    1367    1412         4       180.000      43.93200    2     ; C-N-C-O, prebuilt X-X-c-o
 1367    1369    1368    1484         4       180.000       4.60240    2     ; C-C-N-C, guess (same as GAFF X -X -ca-ha)
 1355    1368    1369    1370         4       180.000      43.93200    2     ; C-N-C-O, prebuilt X-X-c-o
 1334    1372    1371    1373         4       180.000       4.60240    2     ; C-C-C-C, prebuilt ca-ca-ca-c2
 1371    1374    1372    1413         4       180.000       4.60240    2     ; C-C-C-H, prebuilt X-X-ca-ha
 1371    1375    1373    1415         4       180.000       4.60240    2     ; C-C-C-H, prebuilt X-X-ca-ha
 1372    1376    1374    1414         4       180.000       4.60240    2     ; C-C-C-H, prebuilt X-X-ca-ha
 1373    1376    1375    1421         4       180.000       4.60240    2     ; C-C-C-H, prebuilt X-X-ca-ha
 1374    1375    1376    1377         4       180.000       4.60240    2     ; C-C-C-C, prebuilt ca-ca-ca-c2
 1376    1378    1377    1379         4       180.000       4.60240    2     ; C-N-C-N, guess (same as GAFF X -X -ca-ha)
 1377    1380    1378    1386         4       180.000       4.60240    2     ; C-C-N-C, guess (same as GAFF X -X -ca-ha)
 1377    1381    1379    1382         4       180.000       4.60240    2     ; C-C-N-C, prebuilt c2-c2-na-c3
 1378    1381    1380    1420         4       180.000       4.60240    2     ; N-C-C-H, guess (same as GAFF X -X -ca-ha)
 1379    1380    1381    1392         4       180.000       4.60240    2     ; N-C-C-C, prebuilt c3-c2-c2-na
 1378    1387    1386    1391         4       180.000       4.60240    2     ; N-C-C-C, guess (same as GAFF X -X -ca-ha)
 1386    1388    1387    1417         4       180.000       4.60240    2     ; C-C-C-H, prebuilt X-X-ca-ha
 1387    1389    1388    1416         4       180.000       4.60240    2     ; C-C-C-H, prebuilt X-X-ca-ha
 1273    1388    1389    1390         4       180.000       4.60240    2     ; N-C-C-C, guess (same as GAFF X -X -ca-ha)
 1389    1391    1390    1418         4       180.000       4.60240    2     ; C-C-C-H, prebuilt X-X-ca-ha
 1386    1390    1391    1419         4       180.000       4.60240    2     ; C-C-C-H, prebuilt X-X-ca-ha
 1333    1397    1396    1401         4       180.000       4.60240    2     ; N-C-C-H, guess (same as GAFF X -X -ca-ha)
 1332    1396    1397    1398         4       180.000       4.60240    2     ; N-C-C-C, prebuilt c3-c2-c2-na
 1429    1492    1427    1518         4       180.000       4.60240    2     ; C-C-N-C, prebuilt c2-c2-na-c3
 1429    1430    1428    1491         4       180.000       4.60240    2     ; C-C-N-C, guess (same as GAFF X -X -ca-ha)
 1427    1428    1429    1466         4       180.000       4.60240    2     ; N-N-C-C, guess (same as GAFF X -X -ca-ha)
 1428    1431    1430    1435         4       180.000       4.60240    2     ; N-C-C-C, guess (same as GAFF X -X -ca-ha)
 1430    1432    1431    1497         4       180.000       4.60240    2     ; C-C-C-H, prebuilt X-X-ca-ha
 1431    1433    1432    1498         4       180.000       4.60240    2     ; C-C-C-H, prebuilt X-X-ca-ha
 1432    1434    1433    1436         4       180.000       4.60240    2     ; C-C-C-N, guess (same as GAFF X -X -ca-ha)
 1433    1435    1434    1500         4       180.000       4.60240    2     ; C-C-C-H, prebuilt X-X-ca-ha
 1430    1434    1435    1499         4       180.000       4.60240    2     ; C-C-C-H, prebuilt X-X-ca-ha
 1433    1437    1436    1440         4       180.000       4.60240    2     ; C-C-N-C, guess (same as GAFF X -X -ca-ha)
 1436    1438    1437    1461         4       180.000      43.93200    2     ; N-C-C-O, prebuilt X-X-c-o
 1437    1439    1438    1442         4       180.000       4.60240    2     ; C-C-C-C, guess (same as GAFF X -X -ca-ha)
 1438    1440    1439    1445         4       180.000       4.60240    2     ; C-C-C-C, guess (same as GAFF X -X -ca-ha)
 1436    1439    1440    1441         4       180.000      43.93200    2     ; N-C-C-O, prebuilt X-X-c-o
 1438    1443    1442    1501         4       180.000       4.60240    2     ; C-C-C-H, prebuilt X-X-ca-ha
 1442    1444    1443    1452         4       180.000       4.60240    2     ; C-C-C-C, prebuilt ca-ca-ca-c3
 1443    1445    1444    1502         4       180.000       4.60240    2     ; C-C-C-H, prebuilt X-X-ca-ha
 1439    1444    1445    1503         4       180.000       4.60240    2     ; C-C-C-H, prebuilt X-X-ca-ha
 1447    1449    1446    1452         4       180.000       4.60240    2     ; C-C-C-C, prebuilt ca-ca-ca-c3
 1446    1448    1447    1505         4       180.000       4.60240    2     ; C-C-C-H, prebuilt X-X-ca-ha
 1447    1450    1448    1462         4       180.000       4.60240    2     ; C-C-C-C, guess (same as GAFF X -X -ca-ha)
 1446    1451    1449    1504         4       180.000       4.60240    2     ; C-C-C-H, prebuilt X-X-ca-ha
 1448    1451    1450    1464         4       180.000       4.60240    2     ; C-C-C-C, guess (same as GAFF X -X -ca-ha)
 1449    1450    1451    1506         4       180.000       4.60240    2     ; C-C-C-H, prebuilt X-X-ca-ha
 1448    1463    1462    1507         4       180.000      43.93200    2     ; C-N-C-O, prebuilt X-X-c-o
 1462    1464    1463    1579         4       180.000       4.60240    2     ; C-C-N-C, guess (same as GAFF X -X -ca-ha)
 1450    1463    1464    1465         4       180.000      43.93200    2     ; C-N-C-O, prebuilt X-X-c-o
 1429    1467    1466    1468         4       180.000       4.60240    2     ; C-C-C-C, prebuilt ca-ca-ca-c2
 1466    1469    1467    1508         4       180.000       4.60240    2     ; C-C-C-H, prebuilt X-X-ca-ha
 1466    1470    1468    1510         4       180.000       4.60240    2     ; C-C-C-H, prebuilt X-X-ca-ha
 1467    1471    1469    1509         4       180.000       4.60240    2     ; C-C-C-H, prebuilt X-X-ca-ha
 1468    1471    1470    1516         4       180.000       4.60240    2     ; C-C-C-H, prebuilt X-X-ca-ha
 1469    1470    1471    1472         4       180.000       4.60240    2     ; C-C-C-C, prebuilt ca-ca-ca-c2
 1471    1473    1472    1474         4       180.000       4.60240    2     ; C-N-C-N, guess (same as GAFF X -X -ca-ha)
 1472    1475    1473    1481         4       180.000       4.60240    2     ; C-C-N-C, guess (same as GAFF X -X -ca-ha)
 1472    1476    1474    1477         4       180.000       4.60240    2     ; C-C-N-C, prebuilt c2-c2-na-c3
 1473    1476    1475    1515         4       180.000       4.60240    2     ; N-C-C-H, guess (same as GAFF X -X -ca-ha)
 1474    1475    1476    1487         4       180.000       4.60240    2     ; N-C-C-C, prebuilt c3-c2-c2-na
 1473    1482    1481    1486         4       180.000       4.60240    2     ; N-C-C-C, guess (same as GAFF X -X -ca-ha)
 1481    1483    1482    1512         4       180.000       4.60240    2     ; C-C-C-H, prebuilt X-X-ca-ha
 1482    1484    1483    1511         4       180.000       4.60240    2     ; C-C-C-H, prebuilt X-X-ca-ha
 1368    1483    1484    1485         4       180.000       4.60240    2     ; N-C-C-C, guess (same as GAFF X -X -ca-ha)
 1484    1486    1485    1513         4       180.000       4.60240    2     ; C-C-C-H, prebuilt X-X-ca-ha
 1481    1485    1486    1514         4       180.000       4.60240    2     ; C-C-C-H, prebuilt X-X-ca-ha
 1428    1492    1491    1496         4       180.000       4.60240    2     ; N-C-C-H, guess (same as GAFF X -X -ca-ha)
 1427    1491    1492    1493         4       180.000       4.60240    2     ; N-C-C-C, prebuilt c3-c2-c2-na
 1524    1587    1522    1613         4       180.000       4.60240    2     ; C-C-N-C, prebuilt c2-c2-na-c3
 1524    1525    1523    1586         4       180.000       4.60240    2     ; C-C-N-C, guess (same as GAFF X -X -ca-ha)
 1522    1523    1524    1561         4       180.000       4.60240    2     ; N-N-C-C, guess (same as GAFF X -X -ca-ha)
 1523    1526    1525    1530         4       180.000       4.60240    2     ; N-C-C-C, guess (same as GAFF X -X -ca-ha)
 1525    1527    1526    1592         4       180.000       4.60240    2     ; C-C-C-H, prebuilt X-X-ca-ha
 1526    1528    1527    1593         4       180.000       4.60240    2     ; C-C-C-H, prebuilt X-X-ca-ha
 1527    1529    1528    1531         4       180.000       4.60240    2     ; C-C-C-N, guess (same as GAFF X -X -ca-ha)
 1528    1530    1529    1595         4       180.000       4.60240    2     ; C-C-C-H, prebuilt X-X-ca-ha
 1525    1529    1530    1594         4       180.000       4.60240    2     ; C-C-C-H, prebuilt X-X-ca-ha
 1528    1532    1531    1535         4       180.000       4.60240    2     ; C-C-N-C, guess (same as GAFF X -X -ca-ha)
 1531    1533    1532    1556         4       180.000      43.93200    2     ; N-C-C-O, prebuilt X-X-c-o
 1532    1534    1533    1537         4       180.000       4.60240    2     ; C-C-C-C, guess (same as GAFF X -X -ca-ha)
 1533    1535    1534    1540         4       180.000       4.60240    2     ; C-C-C-C, guess (same as GAFF X -X -ca-ha)
 1531    1534    1535    1536         4       180.000      43.93200    2     ; N-C-C-O, prebuilt X-X-c-o
 1533    1538    1537    1596         4       180.000       4.60240    2     ; C-C-C-H, prebuilt X-X-ca-ha
 1537    1539    1538    1547         4       180.000       4.60240    2     ; C-C-C-C, prebuilt ca-ca-ca-c3
 1538    1540    1539    1597         4       180.000       4.60240    2     ; C-C-C-H, prebuilt X-X-ca-ha
 1534    1539    1540    1598         4       180.000       4.60240    2     ; C-C-C-H, prebuilt X-X-ca-ha
 1542    1544    1541    1547         4       180.000       4.60240    2     ; C-C-C-C, prebuilt ca-ca-ca-c3
 1541    1543    1542    1600         4       180.000       4.60240    2     ; C-C-C-H, prebuilt X-X-ca-ha
 1542    1545    1543    1557         4       180.000       4.60240    2     ; C-C-C-C, guess (same as GAFF X -X -ca-ha)
 1541    1546    1544    1599         4       180.000       4.60240    2     ; C-C-C-H, prebuilt X-X-ca-ha
 1543    1546    1545    1559         4       180.000       4.60240    2     ; C-C-C-C, guess (same as GAFF X -X -ca-ha)
 1544    1545    1546    1601         4       180.000       4.60240    2     ; C-C-C-H, prebuilt X-X-ca-ha
 1543    1558    1557    1602         4       180.000      43.93200    2     ; C-N-C-O, prebuilt X-X-c-o
 1557    1559    1558    1674         4       180.000       4.60240    2     ; C-C-N-C, guess (same as GAFF X -X -ca-ha)
 1545    1558    1559    1560         4       180.000      43.93200    2     ; C-N-C-O, prebuilt X-X-c-o
 1524    1562    1561    1563         4       180.000       4.60240    2     ; C-C-C-C, prebuilt ca-ca-ca-c2
 1561    1564    1562    1603         4       180.000       4.60240    2     ; C-C-C-H, prebuilt X-X-ca-ha
 1561    1565    1563    1605         4       180.000       4.60240    2     ; C-C-C-H, prebuilt X-X-ca-ha
 1562    1566    1564    1604         4       180.000       4.60240    2     ; C-C-C-H, prebuilt X-X-ca-ha
 1563    1566    1565    1611         4       180.000       4.60240    2     ; C-C-C-H, prebuilt X-X-ca-ha
 1564    1565    1566    1567         4       180.000       4.60240    2     ; C-C-C-C, prebuilt ca-ca-ca-c2
 1566    1568    1567    1569         4       180.000       4.60240    2     ; C-N-C-N, guess (same as GAFF X -X -ca-ha)
 1567    1570    1568    1576         4       180.000       4.60240    2     ; C-C-N-C, guess (same as GAFF X -X -ca-ha)
 1567    1571    1569    1572         4       180.000       4.60240    2     ; C-C-N-C, prebuilt c2-c2-na-c3
 1568    1571    1570    1610         4       180.000       4.60240    2     ; N-C-C-H, guess (same as GAFF X -X -ca-ha)
 1569    1570    1571    1582         4       180.000       4.60240    2     ; N-C-C-C, prebuilt c3-c2-c2-na
 1568    1577    1576    1581         4       180.000       4.60240    2     ; N-C-C-C, guess (same as GAFF X -X -ca-ha)
 1576    1578    1577    1607         4       180.000       4.60240    2     ; C-C-C-H, prebuilt X-X-ca-ha
 1577    1579    1578    1606         4       180.000       4.60240    2     ; C-C-C-H, prebuilt X-X-ca-ha
 1463    1578    1579    1580         4       180.000       4.60240    2     ; N-C-C-C, guess (same as GAFF X -X -ca-ha)
 1579    1581    1580    1608         4       180.000       4.60240    2     ; C-C-C-H, prebuilt X-X-ca-ha
 1576    1580    1581    1609         4       180.000       4.60240    2     ; C-C-C-H, prebuilt X-X-ca-ha
 1523    1587    1586    1591         4       180.000       4.60240    2     ; N-C-C-H, guess (same as GAFF X -X -ca-ha)
 1522    1586    1587    1588         4       180.000       4.60240    2     ; N-C-C-C, prebuilt c3-c2-c2-na
 1619    1682    1617    1708         4       180.000       4.60240    2     ; C-C-N-C, prebuilt c2-c2-na-c3
 1619    1620    1618    1681         4       180.000       4.60240    2     ; C-C-N-C, guess (same as GAFF X -X -ca-ha)
 1617    1618    1619    1656         4       180.000       4.60240    2     ; N-N-C-C, guess (same as GAFF X -X -ca-ha)
 1618    1621    1620    1625         4       180.000       4.60240    2     ; N-C-C-C, guess (same as GAFF X -X -ca-ha)
 1620    1622    1621    1687         4       180.000       4.60240    2     ; C-C-C-H, prebuilt X-X-ca-ha
 1621    1623    1622    1688         4       180.000       4.60240    2     ; C-C-C-H, prebuilt X-X-ca-ha
 1622    1624    1623    1626         4       180.000       4.60240    2     ; C-C-C-N, guess (same as GAFF X -X -ca-ha)
 1623    1625    1624    1690         4       180.000       4.60240    2     ; C-C-C-H, prebuilt X-X-ca-ha
 1620    1624    1625    1689         4       180.000       4.60240    2     ; C-C-C-H, prebuilt X-X-ca-ha
 1623    1627    1626    1630         4       180.000       4.60240    2     ; C-C-N-C, guess (same as GAFF X -X -ca-ha)
 1626    1628    1627    1651         4       180.000      43.93200    2     ; N-C-C-O, prebuilt X-X-c-o
 1627    1629    1628    1632         4       180.000       4.60240    2     ; C-C-C-C, guess (same as GAFF X -X -ca-ha)
 1628    1630    1629    1635         4       180.000       4.60240    2     ; C-C-C-C, guess (same as GAFF X -X -ca-ha)
 1626    1629    1630    1631         4       180.000      43.93200    2     ; N-C-C-O, prebuilt X-X-c-o
 1628    1633    1632    1691         4       180.000       4.60240    2     ; C-C-C-H, prebuilt X-X-ca-ha
 1632    1634    1633    1642         4       180.000       4.60240    2     ; C-C-C-C, prebuilt ca-ca-ca-c3
 1633    1635    1634    1692         4       180.000       4.60240    2     ; C-C-C-H, prebuilt X-X-ca-ha
 1629    1634    1635    1693         4       180.000       4.60240    2     ; C-C-C-H, prebuilt X-X-ca-ha
 1637    1639    1636    1642         4       180.000       4.60240    2     ; C-C-C-C, prebuilt ca-ca-ca-c3
 1636    1638    1637    1695         4       180.000       4.60240    2     ; C-C-C-H, prebuilt X-X-ca-ha
 1637    1640    1638    1652         4       180.000       4.60240    2     ; C-C-C-C, guess (same as GAFF X -X -ca-ha)
 1636    1641    1639    1694         4       180.000       4.60240    2     ; C-C-C-H, prebuilt X-X-ca-ha
 1638    1641    1640    1654         4       180.000       4.60240    2     ; C-C-C-C, guess (same as GAFF X -X -ca-ha)
 1639    1640    1641    1696         4       180.000       4.60240    2     ; C-C-C-H, prebuilt X-X-ca-ha
 1638    1653    1652    1697         4       180.000      43.93200    2     ; C-N-C-O, prebuilt X-X-c-o
 1652    1654    1653    1769         4       180.000       4.60240    2     ; C-C-N-C, guess (same as GAFF X -X -ca-ha)
 1640    1653    1654    1655         4       180.000      43.93200    2     ; C-N-C-O, prebuilt X-X-c-o
 1619    1657    1656    1658         4       180.000       4.60240    2     ; C-C-C-C, prebuilt ca-ca-ca-c2
 1656    1659    1657    1698         4       180.000       4.60240    2     ; C-C-C-H, prebuilt X-X-ca-ha
 1656    1660    1658    1700         4       180.000       4.60240    2     ; C-C-C-H, prebuilt X-X-ca-ha
 1657    1661    1659    1699         4       180.000       4.60240    2     ; C-C-C-H, prebuilt X-X-ca-ha
 1658    1661    1660    1706         4       180.000       4.60240    2     ; C-C-C-H, prebuilt X-X-ca-ha
 1659    1660    1661    1662         4       180.000       4.60240    2     ; C-C-C-C, prebuilt ca-ca-ca-c2
 1661    1663    1662    1664         4       180.000       4.60240    2     ; C-N-C-N, guess (same as GAFF X -X -ca-ha)
 1662    1665    1663    1671         4       180.000       4.60240    2     ; C-C-N-C, guess (same as GAFF X -X -ca-ha)
 1662    1666    1664    1667         4       180.000       4.60240    2     ; C-C-N-C, prebuilt c2-c2-na-c3
 1663    1666    1665    1705         4       180.000       4.60240    2     ; N-C-C-H, guess (same as GAFF X -X -ca-ha)
 1664    1665    1666    1677         4       180.000       4.60240    2     ; N-C-C-C, prebuilt c3-c2-c2-na
 1663    1672    1671    1676         4       180.000       4.60240    2     ; N-C-C-C, guess (same as GAFF X -X -ca-ha)
 1671    1673    1672    1702         4       180.000       4.60240    2     ; C-C-C-H, prebuilt X-X-ca-ha
 1672    1674    1673    1701         4       180.000       4.60240    2     ; C-C-C-H, prebuilt X-X-ca-ha
 1558    1673    1674    1675         4       180.000       4.60240    2     ; N-C-C-C, guess (same as GAFF X -X -ca-ha)
 1674    1676    1675    1703         4       180.000       4.60240    2     ; C-C-C-H, prebuilt X-X-ca-ha
 1671    1675    1676    1704         4       180.000       4.60240    2     ; C-C-C-H, prebuilt X-X-ca-ha
 1618    1682    1681    1686         4       180.000       4.60240    2     ; N-C-C-H, guess (same as GAFF X -X -ca-ha)
 1617    1681    1682    1683         4       180.000       4.60240    2     ; N-C-C-C, prebuilt c3-c2-c2-na
 1714    1777    1712    1803         4       180.000       4.60240    2     ; C-C-N-C, prebuilt c2-c2-na-c3
 1714    1715    1713    1776         4       180.000       4.60240    2     ; C-C-N-C, guess (same as GAFF X -X -ca-ha)
 1712    1713    1714    1751         4       180.000       4.60240    2     ; N-N-C-C, guess (same as GAFF X -X -ca-ha)
 1713    1716    1715    1720         4       180.000       4.60240    2     ; N-C-C-C, guess (same as GAFF X -X -ca-ha)
 1715    1717    1716    1782         4       180.000       4.60240    2     ; C-C-C-H, prebuilt X-X-ca-ha
 1716    1718    1717    1783         4       180.000       4.60240    2     ; C-C-C-H, prebuilt X-X-ca-ha
 1717    1719    1718    1721         4       180.000       4.60240    2     ; C-C-C-N, guess (same as GAFF X -X -ca-ha)
 1718    1720    1719    1785         4       180.000       4.60240    2     ; C-C-C-H, prebuilt X-X-ca-ha
 1715    1719    1720    1784         4       180.000       4.60240    2     ; C-C-C-H, prebuilt X-X-ca-ha
 1718    1722    1721    1725         4       180.000       4.60240    2     ; C-C-N-C, guess (same as GAFF X -X -ca-ha)
 1721    1723    1722    1746         4       180.000      43.93200    2     ; N-C-C-O, prebuilt X-X-c-o
 1722    1724    1723    1727         4       180.000       4.60240    2     ; C-C-C-C, guess (same as GAFF X -X -ca-ha)
 1723    1725    1724    1730         4       180.000       4.60240    2     ; C-C-C-C, guess (same as GAFF X -X -ca-ha)
 1721    1724    1725    1726         4       180.000      43.93200    2     ; N-C-C-O, prebuilt X-X-c-o
 1723    1728    1727    1786         4       180.000       4.60240    2     ; C-C-C-H, prebuilt X-X-ca-ha
 1727    1729    1728    1737         4       180.000       4.60240    2     ; C-C-C-C, prebuilt ca-ca-ca-c3
 1728    1730    1729    1787         4       180.000       4.60240    2     ; C-C-C-H, prebuilt X-X-ca-ha
 1724    1729    1730    1788         4       180.000       4.60240    2     ; C-C-C-H, prebuilt X-X-ca-ha
 1732    1734    1731    1737         4       180.000       4.60240    2     ; C-C-C-C, prebuilt ca-ca-ca-c3
 1731    1733    1732    1790         4       180.000       4.60240    2     ; C-C-C-H, prebuilt X-X-ca-ha
 1732    1735    1733    1747         4       180.000       4.60240    2     ; C-C-C-C, guess (same as GAFF X -X -ca-ha)
 1731    1736    1734    1789         4       180.000       4.60240    2     ; C-C-C-H, prebuilt X-X-ca-ha
 1733    1736    1735    1749         4       180.000       4.60240    2     ; C-C-C-C, guess (same as GAFF X -X -ca-ha)
 1734    1735    1736    1791         4       180.000       4.60240    2     ; C-C-C-H, prebuilt X-X-ca-ha
 1733    1748    1747    1792         4       180.000      43.93200    2     ; C-N-C-O, prebuilt X-X-c-o
 1747    1749    1748    1864         4       180.000       4.60240    2     ; C-C-N-C, guess (same as GAFF X -X -ca-ha)
 1735    1748    1749    1750         4       180.000      43.93200    2     ; C-N-C-O, prebuilt X-X-c-o
 1714    1752    1751    1753         4       180.000       4.60240    2     ; C-C-C-C, prebuilt ca-ca-ca-c2
 1751    1754    1752    1793         4       180.000       4.60240    2     ; C-C-C-H, prebuilt X-X-ca-ha
 1751    1755    1753    1795         4       180.000       4.60240    2     ; C-C-C-H, prebuilt X-X-ca-ha
 1752    1756    1754    1794         4       180.000       4.60240    2     ; C-C-C-H, prebuilt X-X-ca-ha
 1753    1756    1755    1801         4       180.000       4.60240    2     ; C-C-C-H, prebuilt X-X-ca-ha
 1754    1755    1756    1757         4       180.000       4.60240    2     ; C-C-C-C, prebuilt ca-ca-ca-c2
 1756    1758    1757    1759         4       180.000       4.60240    2     ; C-N-C-N, guess (same as GAFF X -X -ca-ha)
 1757    1760    1758    1766         4       180.000       4.60240    2     ; C-C-N-C, guess (same as GAFF X -X -ca-ha)
 1757    1761    1759    1762         4       180.000       4.60240    2     ; C-C-N-C, prebuilt c2-c2-na-c3
 1758    1761    1760    1800         4       180.000       4.60240    2     ; N-C-C-H, guess (same as GAFF X -X -ca-ha)
 1759    1760    1761    1772         4       180.000       4.60240    2     ; N-C-C-C, prebuilt c3-c2-c2-na
 1758    1767    1766    1771         4       180.000       4.60240    2     ; N-C-C-C, guess (same as GAFF X -X -ca-ha)
 1766    1768    1767    1797         4       180.000       4.60240    2     ; C-C-C-H, prebuilt X-X-ca-ha
 1767    1769    1768    1796         4       180.000       4.60240    2     ; C-C-C-H, prebuilt X-X-ca-ha
 1653    1768    1769    1770         4       180.000       4.60240    2     ; N-C-C-C, guess (same as GAFF X -X -ca-ha)
 1769    1771    1770    1798         4       180.000       4.60240    2     ; C-C-C-H, prebuilt X-X-ca-ha
 1766    1770    1771    1799         4       180.000       4.60240    2     ; C-C-C-H, prebuilt X-X-ca-ha
 1713    1777    1776    1781         4       180.000       4.60240    2     ; N-C-C-H, guess (same as GAFF X -X -ca-ha)
 1712    1776    1777    1778         4       180.000       4.60240    2     ; N-C-C-C, prebuilt c3-c2-c2-na
 1809    1872    1807    1898         4       180.000       4.60240    2     ; C-C-N-C, prebuilt c2-c2-na-c3
 1809    1810    1808    1871         4       180.000       4.60240    2     ; C-C-N-C, guess (same as GAFF X -X -ca-ha)
 1807    1808    1809    1846         4       180.000       4.60240    2     ; N-N-C-C, guess (same as GAFF X -X -ca-ha)
 1808    1811    1810    1815         4       180.000       4.60240    2     ; N-C-C-C, guess (same as GAFF X -X -ca-ha)
 1810    1812    1811    1877         4       180.000       4.60240    2     ; C-C-C-H, prebuilt X-X-ca-ha
 1811    1813    1812    1878         4       180.000       4.60240    2     ; C-C-C-H, prebuilt X-X-ca-ha
 1812    1814    1813    1816         4       180.000       4.60240    2     ; C-C-C-N, guess (same as GAFF X -X -ca-ha)
 1813    1815    1814    1880         4       180.000       4.60240    2     ; C-C-C-H, prebuilt X-X-ca-ha
 1810    1814    1815    1879         4       180.000       4.60240    2     ; C-C-C-H, prebuilt X-X-ca-ha
 1813    1817    1816    1820         4       180.000       4.60240    2     ; C-C-N-C, guess (same as GAFF X -X -ca-ha)
 1816    1818    1817    1841         4       180.000      43.93200    2     ; N-C-C-O, prebuilt X-X-c-o
 1817    1819    1818    1822         4       180.000       4.60240    2     ; C-C-C-C, guess (same as GAFF X -X -ca-ha)
 1818    1820    1819    1825         4       180.000       4.60240    2     ; C-C-C-C, guess (same as GAFF X -X -ca-ha)
 1816    1819    1820    1821         4       180.000      43.93200    2     ; N-C-C-O, prebuilt X-X-c-o
 1818    1823    1822    1881         4       180.000       4.60240    2     ; C-C-C-H, prebuilt X-X-ca-ha
 1822    1824    1823    1832         4       180.000       4.60240    2     ; C-C-C-C, prebuilt ca-ca-ca-c3
 1823    1825    1824    1882         4       180.000       4.60240    2     ; C-C-C-H, prebuilt X-X-ca-ha
 1819    1824    1825    1883         4       180.000       4.60240    2     ; C-C-C-H, prebuilt X-X-ca-ha
 1827    1829    1826    1832         4       180.000       4.60240    2     ; C-C-C-C, prebuilt ca-ca-ca-c3
 1826    1828    1827    1885         4       180.000       4.60240    2     ; C-C-C-H, prebuilt X-X-ca-ha
 1827    1830    1828    1842         4       180.000       4.60240    2     ; C-C-C-C, guess (same as GAFF X -X -ca-ha)
 1826    1831    1829    1884         4       180.000       4.60240    2     ; C-C-C-H, prebuilt X-X-ca-ha
 1828    1831    1830    1844         4       180.000       4.60240    2     ; C-C-C-C, guess (same as GAFF X -X -ca-ha)
 1829    1830    1831    1886         4       180.000       4.60240    2     ; C-C-C-H, prebuilt X-X-ca-ha
 1828    1843    1842    1887         4       180.000      43.93200    2     ; C-N-C-O, prebuilt X-X-c-o
 1842    1844    1843    1902         4       180.000       4.60240    2     ; C-C-N-H, prebuilt X-X-n-hn
 1830    1843    1844    1845         4       180.000      43.93200    2     ; C-N-C-O, prebuilt X-X-c-o
 1809    1847    1846    1848         4       180.000       4.60240    2     ; C-C-C-C, prebuilt ca-ca-ca-c2
 1846    1849    1847    1888         4       180.000       4.60240    2     ; C-C-C-H, prebuilt X-X-ca-ha
 1846    1850    1848    1890         4       180.000       4.60240    2     ; C-C-C-H, prebuilt X-X-ca-ha
 1847    1851    1849    1889         4       180.000       4.60240    2     ; C-C-C-H, prebuilt X-X-ca-ha
 1848    1851    1850    1896         4       180.000       4.60240    2     ; C-C-C-H, prebuilt X-X-ca-ha
 1849    1850    1851    1852         4       180.000       4.60240    2     ; C-C-C-C, prebuilt ca-ca-ca-c2
 1851    1853    1852    1854         4       180.000       4.60240    2     ; C-N-C-N, guess (same as GAFF X -X -ca-ha)
 1852    1855    1853    1861         4       180.000       4.60240    2     ; C-C-N-C, guess (same as GAFF X -X -ca-ha)
 1852    1856    1854    1857         4       180.000       4.60240    2     ; C-C-N-C, prebuilt c2-c2-na-c3
 1853    1856    1855    1895         4       180.000       4.60240    2     ; N-C-C-H, guess (same as GAFF X -X -ca-ha)
 1854    1855    1856    1867         4       180.000       4.60240    2     ; N-C-C-C, prebuilt c3-c2-c2-na
 1853    1862    1861    1866         4       180.000       4.60240    2     ; N-C-C-C, guess (same as GAFF X -X -ca-ha)
 1861    1863    1862    1892         4       180.000       4.60240    2     ; C-C-C-H, prebuilt X-X-ca-ha
 1862    1864    1863    1891         4       180.000       4.60240    2     ; C-C-C-H, prebuilt X-X-ca-ha
 1748    1863    1864    1865         4       180.000       4.60240    2     ; N-C-C-C, guess (same as GAFF X -X -ca-ha)
 1864    1866    1865    1893         4       180.000       4.60240    2     ; C-C-C-H, prebuilt X-X-ca-ha
 1861    1865    1866    1894         4       180.000       4.60240    2     ; C-C-C-H, prebuilt X-X-ca-ha
 1808    1872    1871    1876         4       180.000       4.60240    2     ; N-C-C-H, guess (same as GAFF X -X -ca-ha)
 1807    1871    1872    1873         4       180.000       4.60240    2     ; N-C-C-C, prebuilt c3-c2-c2-na




 
  [ moleculetype ]
; name  nrexcl
BMIM     3

  [ atoms ]
;  nr    type   resnr   residu   atom   cgnr    charge      mass
    1    NA     1      BMIM      NA    1   0.15  14.00670       ;   0.0000000
    2    CR     1      BMIM      CR    1   -0.11  12.01100       ;   0.0000000
    3    HA     1      BMIM      HA    1   0.21   1.00800       ;   0.0000000
    4    NA     1      BMIM      NA    1   0.15  14.00670       ;   0.0000000
    5    CW     1      BMIM      CW    1   -0.13  12.01100       ;   0.0000000
    6    HA     1      BMIM      HA    1   0.21   1.00800       ;   0.0000000
    7    CW     1      BMIM      CW    1   -0.13  12.01100       ;   0.0000000
    8    HA     1      BMIM      HA    1   0.21   1.00800       ;   0.0000000
    9    CA     1      BMIM      CA    2   -0.17  12.01100       ;   0.0000000
   10    HB     1      BMIM      HB    2   0.13   1.00800       ;   0.0000000
   11    HB     1      BMIM      HB    2   0.13   1.00800       ;   0.0000000
   12    CB     1      BMIM      CB    3   0.01  12.01100       ;   0.0000000
   13    HC     1      BMIM      HC    3   0.06   1.00800       ;   0.0000000
   14    HC     1      BMIM      HC    3   0.06   1.00800       ;   0.0000000
   15    CS     1      BMIM      CS    4   -0.12  12.01100       ;   0.0000000
   16    HC     1      BMIM      HC    4   0.06   1.00800       ;   0.0000000
   17    HC     1      BMIM      HC    4   0.06   1.00800       ;   0.0000000
   18    CT     1      BMIM      CT    5   -0.18  12.01100       ;   0.0000000
   19    HC     1      BMIM      HC    5   0.06   1.00800       ;   0.0000000
   20    HC     1      BMIM      HC    5   0.06   1.00800       ;   0.0000000
   21    HC     1      BMIM      HC    5   0.06   1.00800       ;   0.0000000
   22    CA     1      BMIM      CA    6   -0.17  12.01100       ;   0.0000000
   23    HB     1      BMIM      HB    6   0.13   1.00800       ;   0.0000000
   24    HB     1      BMIM      HB    6   0.13   1.00800       ;   0.0000000
   25    HB     1      BMIM      HB    6   0.13   1.00800       ;   0.0000000
; total molecule charge =   1.0000000

  [ bonds ]
;   ai  aj   funct      b0          kb
       1     2   1     0.1315       199600.       ;    NA-    CR
       1     7   1     0.1378       178700.       ;    NA-    CW
       1     9   1     0.1466       141000.       ;    NA-    CA
       2     3   1     0.1080       307106.       ;    CR-    HA
       2     4   1     0.1315       199600.       ;    CR-    NA
       4     5   1     0.1378       178700.       ;    NA-    CW
       4    22   1     0.1466       141000.       ;    NA-    CA
       5     6   1     0.1080       307106.       ;    CW-    HA
       5     7   1     0.1341       217600.       ;    CW-    CW
       7     8   1     0.1080       307106.       ;    CW-    HA
       9    10   1     0.1090       284512.       ;    CA-    HB
       9    11   1     0.1090       284512.       ;    CA-    HB
       9    12   1     0.1529       112100.       ;    CA-    CB
      12    13   1     0.1090       284512.       ;    CB-    HC
      12    14   1     0.1090       284512.       ;    CB-    HC
      12    15   1     0.1529       112100.       ;    CB-    CS
      15    16   1     0.1090       284512.       ;    CS-    HC
      15    17   1     0.1090       284512.       ;    CS-    HC
      15    18   1     0.1529       112100.       ;    CS-    CT
      18    19   1     0.1090       284512.       ;    CT-    HC
      18    20   1     0.1090       284512.       ;    CT-    HC
      18    21   1     0.1090       284512.       ;    CT-    HC
      22    23   1     0.1090       284512.       ;    CA-    HB
      22    24   1     0.1090       284512.       ;    CA-    HB
      22    25   1     0.1090       284512.       ;    CA-    HB


  [ constraints ]
;   ai  aj   funct      b0                          
       2     3   1     0.1080                                   
       5     6   1     0.1080    
       7     8   1     0.1080    
       9    10   1     0.1090    
       9    11   1     0.1090    
      12    13   1     0.1090   
      12    14   1     0.1090   
      15    16   1     0.1090   
      15    17   1     0.1090    
      18    19   1     0.1090    
      18    20   1     0.1090   
      18    21   1     0.1090   
      22    23   1     0.1090   
      22    24   1     0.1090   
      22    25   1     0.1090   

  [ pairs ]
       7       3  1       ;    CW-    HA
       9       3  1       ;    CA-    HA
       9       4  1       ;    CA-    NA
       2       8  1       ;    CR-    HA
       9       5  1       ;    CA-    CW
       9       8  1       ;    CA-    HA
       2      10  1       ;    CR-    HB
       2      11  1       ;    CR-    HB
       2      12  1       ;    CR-    CB
       7      10  1       ;    CW-    HB
       7      11  1       ;    CW-    HB
       7      12  1       ;    CW-    CB
       1      22  1       ;    NA-    CA
       3       5  1       ;    HA-    CW
       3      22  1       ;    HA-    CA
       2       6  1       ;    CR-    HA
      22       6  1       ;    CA-    HA
      22       7  1       ;    CA-    CW
       2      23  1       ;    CR-    HB
       2      24  1       ;    CR-    HB
       2      25  1       ;    CR-    HB
       5      23  1       ;    CW-    HB
       5      24  1       ;    CW-    HB
       5      25  1       ;    CW-    HB
       4       8  1       ;    NA-    HA
       6       1  1       ;    HA-    NA
       6       8  1       ;    HA-    HA
       1      13  1       ;    NA-    HC
       1      14  1       ;    NA-    HC
       1      15  1       ;    NA-    CS
      10      13  1       ;    HB-    HC
      10      14  1       ;    HB-    HC
      10      15  1       ;    HB-    CS
      11      13  1       ;    HB-    HC
      11      14  1       ;    HB-    HC
      11      15  1       ;    HB-    CS
       9      16  1       ;    CA-    HC
       9      17  1       ;    CA-    HC
       9      18  1       ;    CA-    CT
      13      16  1       ;    HC-    HC
      13      17  1       ;    HC-    HC
      13      18  1       ;    HC-    CT
      14      16  1       ;    HC-    HC
      14      17  1       ;    HC-    HC
      14      18  1       ;    HC-    CT
      12      19  1       ;    CB-    HC
      12      20  1       ;    CB-    HC
      12      21  1       ;    CB-    HC
      16      19  1       ;    HC-    HC
      16      20  1       ;    HC-    HC
      16      21  1       ;    HC-    HC
      17      19  1       ;    HC-    HC
      17      20  1       ;    HC-    HC
      17      21  1       ;    HC-    HC


  [ angles ]
; ai  aj  ak  funct      th0         cth
     7     1     2   1     108.000    292.6000     ;    CW-    NA-    CR
     9     1     2   1     126.400    292.6000     ;    CA-    NA-    CR
     1     2     3   1     125.100    146.3000     ;    NA-    CR-    HA
     1     2     4   1     109.800    292.6000     ;    NA-    CR-    NA
     9     1     7   1     125.600    292.6000     ;    CA-    NA-    CW
     1     7     5   1     107.100    292.6000     ;    NA-    CW-    CW
     1     7     8   1     122.000    146.3000     ;    NA-    CW-    HA
     1     9    10   1     110.700    156.6000     ;    NA-    CA-    HB
     1     9    11   1     110.700    156.6000     ;    NA-    CA-    HB
     1     9    12   1     112.700    418.4000     ;    NA-    CA-    CB
     4     2     3   1     125.100    146.3000     ;    NA-    CR-    HA
     2     4     5   1     108.000    292.6000     ;    CR-    NA-    CW
     2     4    22   1     126.400    292.6000     ;    CR-    NA-    CA
    22     4     5   1     125.600    292.6000     ;    CA-    NA-    CW
     4     5     6   1     122.000    146.3000     ;    NA-    CW-    HA
     4     5     7   1     107.100    292.6000     ;    NA-    CW-    CW
     4    22    23   1     110.700    156.6000     ;    NA-    CA-    HB
     4    22    24   1     110.700    156.6000     ;    NA-    CA-    HB
     4    22    25   1     110.700    156.6000     ;    NA-    CA-    HB
     7     5     6   1     130.900    146.3000     ;    CW-    CW-    HA
     5     7     8   1     130.900    146.3000     ;    CW-    CW-    HA
    11     9    10   1     107.800    138.1000     ;    HB-    CA-    HB
    12     9    10   1     110.700    156.6000     ;    CB-    CA-    HB
    12     9    11   1     110.700    156.6000     ;    CB-    CA-    HB
     9    12    13   1     110.700    156.6000     ;    CA-    CB-    HC
     9    12    14   1     110.700    156.6000     ;    CA-    CB-    HC
     9    12    15   1     112.700    418.4000     ;    CA-    CB-    CS
    14    12    13   1     107.800    138.1000     ;    HC-    CB-    HC
    15    12    13   1     110.700    156.6000     ;    CS-    CB-    HC
    15    12    14   1     110.700    156.6000     ;    CS-    CB-    HC
    12    15    16   1     110.700    156.6000     ;    CB-    CS-    HC
    12    15    17   1     110.700    156.6000     ;    CB-    CS-    HC
    12    15    18   1     112.700    418.4000     ;    CB-    CS-    CT
    17    15    16   1     107.800    138.1000     ;    HC-    CS-    HC
    18    15    16   1     110.700    156.6000     ;    CT-    CS-    HC
    18    15    17   1     110.700    156.6000     ;    CT-    CS-    HC
    15    18    19   1     110.700    156.6000     ;    CS-    CT-    HC
    15    18    20   1     110.700    156.6000     ;    CS-    CT-    HC
    15    18    21   1     110.700    156.6000     ;    CS-    CT-    HC
    20    18    19   1     107.800    138.1000     ;    HC-    CT-    HC
    21    18    19   1     107.800    138.1000     ;    HC-    CT-    HC
    21    18    20   1     107.800    138.1000     ;    HC-    CT-    HC
    24    22    23   1     107.800    138.1000     ;    HB-    CA-    HB
    25    22    23   1     107.800    138.1000     ;    HB-    CA-    HB
    25    22    24   1     107.800    138.1000     ;    HB-    CA-    HB

  [ dihedrals ]
;  ai    aj    ak    al funct            c0            c1            c2            c3            c4               
     1     7     5     6   5  0.00000    44.98000 0.00000 0.00000                        ; dih     NA-    CW-    CW-    NA
     1     7     5     4   5  0.00000    44.98000 0.00000 0.00000                        ; dih     NA-    CW-    CW-    NA
     4     5     7     1   5  0.00000    44.98000 0.00000 0.00000                        ; dih     NA-    CW-    CW-    NA
     4     5     7     8   5  0.00000    44.98000 0.00000 0.00000                        ; dih     NA-    CW-    CW-    NA
     7     1     2     4   5  0.00000    19.46000 0.00000 0.00000                        ; dih     CW-    NA-    CR-    NA
     7     1     2     3   5  0.00000    19.46000 0.00000 0.00000                        ; dih     CW-    NA-    CR-    NA
     9     1     2     4   5  0.00000    19.46000 0.00000 0.00000                        ; dih     CW-    NA-    CR-    NA
     9     1     2     3   5  0.00000    19.46000 0.00000 0.00000                        ; dih     CW-    NA-    CR-    NA
     5     4     2     1   5  0.00000    19.46000 0.00000 0.00000                        ; dih     CW-    NA-    CR-    NA
     5     4     2     3   5  0.00000    19.46000 0.00000 0.00000                        ; dih     CW-    NA-    CR-    NA
     22    4     2     1   5  0.00000    19.46000 0.00000 0.00000                        ; dih     CW-    NA-    CR-    NA
     22    4     2     3   5  0.00000    19.46000 0.00000 0.00000                        ; dih     CW-    NA-    CR-    NA
     2     1     7     5   5  0.00000    12.55000 0.00000 0.00000                        ; dih     CR-    NA-    CW-    CW
     2     1     7     8   5  0.00000    12.55000 0.00000 0.00000                        ; dih     CR-    NA-    CW-    CW
     9     1     7     5   5  0.00000    12.55000 0.00000 0.00000                        ; dih     CR-    NA-    CW-    CW
     9     1     7     8   5  0.00000    12.55000 0.00000 0.00000                        ; dih     CR-    NA-    CW-    CW
     2     4     5     7   5  0.00000    12.55000 0.00000 0.00000                        ; dih     CR-    NA-    CW-    CW
     2     4     5     6   5  0.00000    12.55000 0.00000 0.00000                        ; dih     CR-    NA-    CW-    CW
     22    4     5     7   5  0.00000    12.55000 0.00000 0.00000                        ; dih     CR-    NA-    CW-    CW
     22    4     5     6   5  0.00000    12.55000 0.00000 0.00000                        ; dih     CR-    NA-    CW-    CW
     7     1     9     12  5  -7.1540     6.10600 0.79400 0.00000                        ; dih     CW-    NA-    CA-    CB
     2     1     9    12   5  -5.2690     0.00000 0.00000 0.00000                        ; dih     CR-    NA-    CA-    CB
     2     4    22    23   5  0.00000    0.000000 0.00000 0.00000                        ; dih     CR-    NA-    CA-    HB
     2     4    22    24   5  0.00000    0.000000 0.00000 0.00000                        ; dih     CR-    NA-    CA-    HB
     2     4    22    25   5  0.00000    0.000000 0.00000 0.00000                        ; dih     CR-    NA-    CA-    HB
     2     1     9    11   5  0.00000    0.000000 0.00000 0.00000                        ; dih     CR-    NA-    CA-    HB
     2     1     9    10   5  0.00000    0.000000 0.00000 0.00000                        ; dih     CR-    NA-    CA-    HB
     1     9    12    15   5  -7.4800     3.1640  -1.2030 0.00000                        ; dih     NA-    CA-    CB-    CS
     9    12    15    18   5  7.28000    -0.6570  1.16700 0.00000                        ; dih     CA-    CB-    CS-    CT
    12    15    18    19   5  0.00000     0.00000 1.53100 0.00000                        ; dih     CB-    CS-    CT-    HC
    12    15    18    20   5  0.00000     0.00000 1.53100 0.00000                        ; dih     CB-    CS-    CT-    HC
    12    15    18    21   5  0.00000     0.00000 1.53100 0.00000                        ; dih     CB-    CS-    CT-    HC
     9    12    15    16   5  0.00000     0.00000 1.53100 0.00000                        ; dih     CB-    CS-    CT-    HC
     9    12    15    17   5  0.00000     0.00000 1.53100 0.00000                        ; dih     CB-    CS-    CT-    HC
    15    12     9    10   5  0.00000     0.00000 1.53100 0.00000                        ; dih     CB-    CS-    CT-    HC
    15    12     9    11   5  0.00000     0.00000 1.53100 0.00000                        ; dih     CB-    CS-    CT-    HC
    18    15    12    13   5  0.00000     0.00000 1.53100 0.00000                        ; dih     CB-    CS-    CT-    HC
    18    15    12    14   5  0.00000     0.00000 1.53100 0.00000                        ; dih     CB-    CS-    CT-    HC
     1     2     4     5   5  0.00000     9.20000 0.00000 0.00000                        ; imp     NA-    CR-    CW-    CA
     2     1     7     5   5  0.00000     8.37000 0.00000 0.00000                        ; imp     CR-    NA-    HA-    NA
     4     2     1     7   5  0.00000     9.20000 0.00000 0.00000                        ; imp     NA-    CR-    CW-    CA
     1     7     5     4   5  0.00000     9.20000 0.00000 0.00000                        ; imp     NA-    CR-    CW-    CA
     4     5     7     1   5  0.00000     9.20000 0.00000 0.00000                        ; imp     NA-    CR-    CW-    CA
     7     5     4     2   5  0.00000     9.20000 0.00000 0.00000                        ; imp     NA-    CR-    CW-    CA
     5     7     1     2   5  0.00000     9.20000 0.00000 0.00000                        ; imp     NA-    CR-    CW-    CA
     5     4     2     1   5  0.00000     8.37000 0.00000 0.00000                        ; imp     CW-    NA-    HA-    CW
     7     1     2     4   5  0.00000     8.37000 0.00000 0.00000                        ; imp     CW-    NA-    CW-    HA
     2     4     5     7   5  0.00000     8.37000 0.00000 0.00000                        ; imp     CW-    NA-    CW-    HA
     5     4     22    23  5  0.00000     0.00000 0.51900 0.00000       		 ; dih     CW-    NA-    CA-    HB
     5     4     22    24  5  0.00000     0.00000 0.51900 0.00000                        ; dih     CW-    NA-    CA-    HB
     5     4     22    25  5  0.00000     0.00000 0.51900 0.00000                        ; dih     CW-    NA-    CA-    HB
     7     1     9     11  5  0.00000     0.00000 0.51900 0.00000                        ; dih     CW-    NA-    CA-    HB
     7     1     9     10  5  0.00000     0.00000 0.51900 0.00000                        ; dih     CW-    NA-    CA-    HB
     1     9     12    13  5  0.00000     0.00000 0.00000 0.00000                        ; dih     NA-    CA-    CB-    HC
     1     9     12    14  5  0.00000     0.00000 0.00000 0.00000                        ; dih     NA-    CA-    CB-    HC
    21    18     15    16  5  0.00000     0.00000 1.33100 0.00000                        ; dih     H -    C -    C -    H
    21    18     15    17  5  0.00000     0.00000 1.33100 0.00000                        ; dih     H -    C -    C -    H
    20    18     15    17  5  0.00000     0.00000 1.33100 0.00000                        ; dih     H -    C -    C -    H
    20    18     15    16  5  0.00000     0.00000 1.33100 0.00000                        ; dih     H -    C -    C -    H
    19    18     15    16  5  0.00000     0.00000 1.33100 0.00000                        ; dih     H -    C -    C -    H
    19    18     15    17  5  0.00000     0.00000 1.33100 0.00000                        ; dih     H -    C -    C -    H
    16    15     12    13  5  0.00000     0.00000 1.33100 0.00000                        ; dih     H -    C -    C -    H
    16    15     12    14  5  0.00000     0.00000 1.33100 0.00000                        ; dih     H -    C -    C -    H
    17    15     12    13  5  0.00000     0.00000 1.33100 0.00000                        ; dih     H -    C -    C -    H
    17    15     12    14  5  0.00000     0.00000 1.33100 0.00000                        ; dih     H -    C -    C -    H
    14    12      9    10  5  0.00000     0.00000 1.33100 0.00000                        ; dih     H -    C -    C -    H
    14    12      9    11  5  0.00000     0.00000 1.33100 0.00000                        ; dih     H -    C -    C -    H
    13    12      9    10  5  0.00000     0.00000 1.33100 0.00000                        ; dih     H -    C -    C -    H
    13    12      9    11  5  0.00000     0.00000 1.33100 0.00000                        ; dih     H -    C -    C -    H
   

  [ moleculetype ]
; name  nrexcl
TF    3

  [ atoms ]
;  nr    type   resnr   residu   atom   cgnr    charge      mass
    1    S91           1     TF         S91    1   1.020    32.06000        ;   0.0000000
    2    O92           1     TF         O92    1   -0.530   15.99940       ;   0.0000000
    3    O93           1     TF         O93    1   -0.530   15.99940       ;   0.0000000
    4    C9Z           1     TF         C9Z    2   0.350    12.01100        ;   0.0000000
    5    F95           1     TF         F95    3   -0.160   18.99840       ;   0.0000000
    6    F96           1     TF         F96    4   -0.160   18.99840        ;   0.0000000
    7    F97           1     TF         F97    5   -0.160   18.99840       ;   0.0000000
    8    N98           1     TF         N98    1   -0.660   14.00670       ;   0.0000000
    9    S99           1     TF         S99    6   1.020    32.06000        ;   0.0000000
   10    O910          1     TF        O910    6   -0.530   15.99940       ;   0.0000000
   11    O911          1     TF        O911    6   -0.530   15.99940       ;   0.0000000
   12    C9Z           1     TF         C9Z    7   0.350    12.01100        ;   0.0000000
   13    F913          1     TF        F913    8   -0.160   18.99840       ;   0.0000000
   14    F914          1     TF        F914    9   -0.160   18.99840       ;   0.0000000
   15    F915          1     TF        F915   10   -0.160   18.99840       ;   0.0000000
; total molecule charge =   -1.0000000

  [ bonds ]
;   ai  aj   funct      b0          kb
       1     2   1     0.14420      533100.       ;    S1-    O2 ; Zhao et al.
       1     3   1     0.14420      533100.       ;    S1-    O3 ; Zhao et al.
       1     8   1     0.15700      311300.       ;    S1-    N8 ; Zhao et al.
       1     4   1     0.18180      197000.       ;    S1-    CT ; Zhao et al.
       4     5   1     0.13230      369700.       ;    CZ-    F5 ; Zhao et al.
       4     6   1     0.13230      369700.       ;    CZ-    F6 ; Zhao et al.
       4     7   1     0.13230      369700.       ;    CZ-    F7 ; Zhao et al.
       8     9   1     0.15700      311300.       ;    N8-    S9 ; Zhao et al.
       9    10   1     0.14420      533100.       ;    S9-   O10 ; Zhao et al.
       9    11   1     0.14420      533100.       ;    S9-   O11 ; Zhao et al.
       9    12   1     0.18180      197000.       ;    S9-    CT ; Zhao et al.
      12    13   1     0.13230      369700.       ;    CZ-   F13 ; Zhao et al.
      12    14   1     0.13230      369700.       ;    CZ-   F14 ; Zhao et al.
      12    15   1     0.13230      369700.       ;    CZ-   F15 ; Zhao et al.

  [ pairs ]
       2       9  1       ;    O2-    S9
       3       9  1       ;    O3-    S9
       4       9  1       ;    CT-    S9
       2       5  1       ;    O2-    F5
       2       6  1       ;    O2-    F6
       2       7  1       ;    O2-    F7
       3       5  1       ;    O3-    F5
       3       6  1       ;    O3-    F6
       3       7  1       ;    O3-    F7
       8       5  1       ;    N8-    F5
       8       6  1       ;    N8-    F6
       8       7  1       ;    N8-    F7
       1      10  1       ;    S1-   O10
       1      11  1       ;    S1-   O11
       1      12  1       ;    S1-    CZ
       8      13  1       ;    N8-   F13
       8      14  1       ;    N8-   F14
       8      15  1       ;    N8-   F15
      10      13  1       ;   O10-   F13
      10      14  1       ;   O10-   F14
      10      15  1       ;   O10-   F15
      11      13  1       ;   O11-   F13
      11      14  1       ;   O11-   F14
      11      15  1       ;   O11-   F15

  [ angles ]
; ai  aj  ak  funct      th0         cth                  angle            type     source
     3     1     2   1     118.500    969.0000     ;    O3-    S1-    O2 ; O-S-O ;Zhao et al.
     8     1     2   1     113.600    789.0000     ;    N8-    S1-    O2 ; N-S-O ;Zhao et al.
     4     1     2   1     102.600    870.0000     ;    CT-    S1-    O2 ; C-S-O ;Zhao et al.
     8     1     3   1     113.600    789.0000     ;    N8-    S1-    O3 ; N-S-O ;Zhao et al.
     4     1     3   1     102.600    870.0000     ;    CT-    S1-    O3 ; C-S-O ;Zhao et al.
     4     1     8   1     100.200    816.0000     ;    CT-    S1-    N8 ; C-S-N ;Zhao et al.
     1     8     9   1     125.000    671.0000     ;    S1-    N8-    S9 ; S-N-S ;Zhao et al.
     1     4     5   1     111.800    694.0000     ;    S1-    CT-    F5 ; S-C-F ;Zhao et al. 
     1     4     6   1     111.800    694.0000     ;    S1-    CT-    F6 ; S-C-F ;Zhao et al.
     1     4     7   1     111.800    694.0000     ;    S1-    CT-    F7 ; S-C-F ;Zhao et al.
     6     4     5   1     107.100    781.0000     ;    F6-    CT-    F5 ; F-C-F ;Zhao et al.
     7     4     5   1     107.100    781.0000     ;    F7-    CT-    F5 ; F-C-F ;Zhao et al.
     7     4     6   1     107.100    781.0000     ;    F7-    CT-    F6 ; F-C-F ;Zhao et al.
     8     9    10   1     113.600    789.0000     ;    N8-    S9-   O10 ; N-S-O ;Zhao et al.
     8     9    11   1     113.600    789.0000     ;    N8-    S9-   O11 ; N-S-O ;Zhao et al.
     8     9    12   1     100.200    816.0000     ;    N8-    S9-    CT ; N-S-C ;Zhao et al.
    11     9    10   1     118.500    969.0000     ;   O11-    S9-   O10 ; O-S-O ;Zhao et al.
    12     9    10   1     102.600    870.0000     ;    CT-    S9-   O10 ; C-S-O ;Zhao et al.
    12     9    11   1     102.600    870.0000     ;    CT-    S9-   O11 ; C-S-O ;Zhao et al.
     9    12    13   1     111.800    694.0000     ;    S9-    CT-   F13 ; S-C-F ;Zhao et al.
     9    12    14   1     111.800    694.0000     ;    S9-    CT-   F14 ; S-C-F ;Zhao et al.
    14    12    13   1     107.100    781.0000     ;   F14-    CT-   F13 ; F-C-F ;Zhao et al.
    15    12    13   1     107.100    781.0000     ;   F15-    CT-   F13 ; F-C-F ;Zhao et al.
    15    12    14   1     107.100    781.0000     ;   F15-    CT-   F14 ; F-C-F ;Zhao et al.

  [ dihedrals ]
;    ai    aj    ak    al  funct   phi0      cp      mult
     5     4     1     2    5     0.0000    0.0000    1.451  0.000  ; dih     F5-    CT-    S1-    O2
     5     4     1     3    5     0.0000    0.0000    1.451  0.000  ; dih     F5-    CT-    S1-    O3
     6     4     1     2    5     0.0000    0.0000    1.451  0.000
     6     4     1     3    5     0.0000    0.0000    1.451  0.000
     7     4     1     2    5     0.0000    0.0000    1.451  0.000
     7     4     1     3    5     0.0000    0.0000    1.451  0.000
    13    12     9    10    5     0.0000    0.0000    1.451  0.000
    13    12     9    11    5     0.0000    0.0000    1.451  0.000
    14    12     9    10    5     0.0000    0.0000    1.451  0.000
    14    12     9    11    5     0.0000    0.0000    1.451  0.000
    15    12     9    10    5     0.0000    0.0000    1.451  0.000
    15    12     9    11    5     0.0000    0.0000    1.451  0.000
     1     8     9    10    5     0.0000    0.0000   -0.015  0.000  ; dih     S1-    N8-    S9-   O10
     1     8     9    11    5     0.0000    0.0000   -0.015  0.000
     9     8     1     2    5     0.0000    0.0000   -0.015  0.000
     9     8     1     3    5     0.0000    0.0000   -0.015  0.000
     1     8     9    12    5     32.773   -10.420   -3.195  0.000  ; dih     S1-    N8-    S9-    CT
     9     8     1     4    5     32.773   -10.420   -3.195  0.000
     5     4     1     8    5     0.0000    0.0000    1.322  0.000  ; dih     F5-    CT-    S1-    N8
     6     4     1     8    5     0.0000    0.0000    1.322  0.000
     7     4     1     8    5     0.0000    0.0000    1.322  0.000
    13    12     9     8    5     0.0000    0.0000    1.322  0.000
    14    12     9     8    5     0.0000    0.0000    1.322  0.000
    15    12     9     8    5     0.0000    0.0000    1.322  0.000

[ moleculetype ]
; name  nrexcl
   CO2   3

 [ atoms ]
;  nr    type   resnr   residu   atom   cgnr    charge      mass
    1     OZ     1       CO2      OZ    1  -0.35000  15.99940       ;   0.1861000
    2     CZ     1       CO2      CZ    1   0.70000  12.01100       ;   0.3722000
    3     OZ     1       CO2      OZ    1  -0.35000  15.99940       ;   0.0000000
; total molecule charge =   0.0000000

 [ bonds ]
;   ai  aj   funct      b0          kb
       1     2   1     0.11600      861899.816       ;    C-    O  TraPPE force field + Maginn and Wei Shi                 
       2     3   1     0.11600      861899.816       ;    C-    O  TraPPE force field + Maginn and Wei Shi                 

[ angles ]
;   ai     aj    ak    al  funct   Thet0    Kc         mutiplicity                     
     1     2     3   1     180.00     468.608      ;    C-    O   C   O TraPPE force field + Maginn and Wei Shi  




 [ moleculetype ]
; name  nrexcl
   CH4   3

 [ atoms ]
;  nr    type   resnr   residu   atom   cgnr    charge      mass
    1     CH4    1       CH4      CH4   1   0.00000  16.04000       ;   0.1861000


 [ moleculetype ]
; name  nrexcl
   N2   2

 [ atoms ]
;  nr    type   resnr   residu   atom   cgnr    charge      mass
    1     NN     1       N2       NN    1  -0.48200  14.00670       ;   0.1861000
    2     IN     1       N2       IN    1   0.96400   0.00000       ;   0.3722000
    3     NN     1       N2       NN    1  -0.48200  14.00670       ;   0.0000000
; total molecule charge =   0.0000000


  [ constraints ]
;   ai  aj   funct      b0                          
       1     2   1     0.05500        ;    NN-    IN                   
       2     3   1     0.05500        ;    NN-    IN                   

[ angles ]
;   ai     aj    ak    al  funct   Thet0    Kc         mutiplicity                     
     1     2     3   1     180.00     468.608      ;    C-    O   C   O TraPPE force field + Maginn and Wei Shi                 



[ system ]
C_2PIM20

[ molecules ]
; Molecule      nmols
C_2PIM20        10
TF             400
CO2             0
