C_2PIM20
25020
    1MOL     N1    1   6.315   5.059   4.614  0.1821 -0.0524  0.1050
    1MOL     N2    2   6.094   5.074   4.662 -0.3394  0.1346 -0.3486
    1MOL     C1    3   6.227   5.086   4.718  0.4926 -0.7648 -0.6914
    1MOL     C2    4   5.987   4.998   4.709 -0.2698 -0.9605  0.0289
    1MOL     C3    5   6.002   4.856   4.705  0.9384  0.0415 -0.1676
    1MOL     C4    6   5.933   4.774   4.796  0.1837  0.7945  0.1636
    1MOL     C5    7   5.841   4.832   4.883  0.0010 -0.0994  0.0480
    1MOL     C6    8   5.813   4.972   4.874  0.1787  0.6567 -0.0976
    1MOL     C7    9   5.886   5.054   4.789 -0.3135 -0.4844  0.3477
    1MOL     N3   10   5.814   4.762   5.005  0.4677 -0.2497 -0.8714
    1MOL     C8   11   5.762   4.632   5.013 -0.9264 -0.9167  0.4955
    1MOL     C9   12   5.763   4.603   5.159 -0.3637  0.0018  0.4972
    1MOL    C10   13   5.824   4.709   5.224 -0.9154 -0.3049 -0.1456
    1MOL    C11   14   5.860   4.816   5.123  0.2884  0.0029 -0.2630
    1MOL     O1   15   5.903   4.921   5.155 -0.5707 -0.3450  0.2494
    1MOL    C12   16   5.706   4.497   5.228 -0.4597  0.4422  0.0864
    1MOL    C13   17   5.706   4.495   5.375 -0.6361 -0.0132 -0.8404
    1MOL    C14   18   5.768   4.614   5.436 -0.4763  0.3072  0.1229
    1MOL    C15   19   5.823   4.722   5.365  0.1407 -0.0610 -0.0585
    1MOL    C16   20   5.675   4.402   5.605  0.6040 -0.1854 -0.0510
    1MOL    C17   21   5.813   4.412   5.649  0.5498  0.1974 -1.1022
    1MOL    C18   22   5.842   4.446   5.781 -0.1048 -0.4316 -0.0875
    1MOL    C19   23   5.575   4.441   5.699  0.1636  0.1255  0.2447
    1MOL    C20   24   5.740   4.496   5.862  0.2900  0.3198 -0.1693
    1MOL    C21   25   5.607   4.496   5.822  0.1780 -0.0613  0.0957
    1MOL    C22   26   5.643   4.380   5.457  0.6018  0.2984  0.5892
    1MOL    C23   27   5.491   4.372   5.429 -0.4949 -0.6071  0.1726
    1MOL     F1   28   5.430   4.267   5.495 -0.6331 -0.1739  0.1659
    1MOL     F2   29   5.457   4.361   5.298  0.1488 -0.3330 -0.5790
    1MOL     F3   30   5.423   4.484   5.466 -0.0173 -0.1868 -0.1240
    1MOL    C24   31   5.707   4.244   5.414 -0.8467  0.1400 -0.4298
    1MOL     F4   32   5.710   4.147   5.510  0.1880 -0.5028 -0.0648
    1MOL     F5   33   5.838   4.271   5.379 -0.4374 -0.1952  0.2048
    1MOL     F6   34   5.658   4.191   5.308  0.0573 -0.1884  0.4932
    1MOL     O2   35   5.726   4.561   4.922 -0.3131 -0.6450  0.0068
    1MOL    C25   36   5.965   4.473   5.860  0.2135  0.0194  0.6115
    1MOL     N4   37   5.938   4.524   5.980  0.4437  0.5153  1.5353
    1MOL    C26   38   5.801   4.532   5.992 -0.0335 -0.4877  0.3131
    1MOL     O3   39   5.740   4.582   6.084  0.1502  0.3950 -0.0710
    1MOL    C27   40   6.266   5.090   4.856 -0.2663 -0.9216  0.1995
    1MOL    C28   41   6.190   5.019   4.953  0.5198  0.7096  0.6099
    1MOL    C29   42   6.369   5.174   4.903 -0.9872  0.3407  0.8248
    1MOL    C30   43   6.229   5.018   5.081 -0.1215  0.4190  1.0950
    1MOL    C31   44   6.402   5.181   5.038 -0.9683 -0.1674 -0.2259
    1MOL    C32   45   6.332   5.100   5.126 -0.0454 -1.3889  0.2970
    1MOL    C33   46   6.365   5.100   5.267 -0.2409  0.3459  0.0364
    1MOL     N5   47   6.405   5.203   5.351  0.3628  0.2171  0.0353
    1MOL     N6   48   6.383   4.975   5.337 -0.3802  0.2906 -0.3781
    1MOL    C34   49   6.433   5.146   5.476  0.3009  0.1775 -0.0774
    1MOL    C35   50   6.428   5.015   5.465  0.3443 -0.7303  0.3558
    1MOL    C36   51   6.455   4.870   5.266 -0.1106 -0.0258 -0.8643
    1MOL     H1   52   6.570   4.876   5.278  2.5199  1.5000  0.3706
    1MOL     H2   53   6.447   4.859   5.157  0.3669 -1.2110  0.6456
    1MOL     H3   54   6.419   4.776   5.312 -0.1978  2.0242 -2.2657
    1MOL    C37   55   6.430   5.338   5.316  0.1128 -0.2181  0.3713
    1MOL    C38   56   6.331   5.410   5.245 -0.1215  0.5068  0.9048
    1MOL    C39   57   6.344   5.548   5.217 -0.2974  0.3258 -0.6756
    1MOL    C40   58   6.458   5.617   5.262 -0.2931  0.0424  0.1397
    1MOL    C41   59   6.562   5.542   5.325  0.3887 -0.2577 -0.0415
    1MOL    C42   60   6.547   5.406   5.351  0.2572  0.0706 -0.1113
    1MOL    C43   61   6.447   4.912   5.573  0.1642  0.4538 -0.2642
    1MOL     F7   62   6.553   4.828   5.555  0.0625  0.3815  0.6643
    1MOL     F8   63   6.340   4.825   5.586 -0.8600  0.2907  1.0671
    1MOL     F9   64   6.467   4.978   5.690 -0.6621  0.2226  0.1080
    1MOL    C44   65   6.113   5.091   4.526 -0.5731  0.4218  0.6453
    1MOL    C45   66   6.244   5.085   4.494 -0.3195 -0.3845 -1.0031
    1MOL    C46   67   6.314   5.113   4.358  0.1788 -0.5902 -0.4891
    1MOL    F10   68   6.427   5.048   4.348 -1.0043 -0.4770  0.7332
    1MOL    F11   69   6.238   5.063   4.264 -0.5287 -0.6062 -0.2039
    1MOL     H4   70   6.030   5.109   4.457 -0.3464 -0.6055  0.6839
    1MOL     H5   71   6.085   4.808   4.658 -0.2447  0.8309 -2.6722
    1MOL     H6   72   5.965   4.666   4.803  0.7171 -1.4147 -1.8790
    1MOL     H7   73   5.874   5.163   4.802  0.4858 -0.0589 -0.9602
    1MOL     H8   74   5.747   5.014   4.950 -0.6087 -0.3938  2.0410
    1MOL     H9   75   5.661   4.418   5.169 -1.3128 -1.1999 -0.1613
    1MOL    H10   76   5.773   4.629   5.542 -1.3122  2.5941 -2.8086
    1MOL    H11   77   5.867   4.813   5.402 -1.1030 -0.0575  0.2503
    1MOL    H12   78   5.472   4.451   5.676 -0.0306  1.1952 -0.1986
    1MOL    H13   79   5.896   4.392   5.580  0.5690 -0.4057 -2.0677
    1MOL    H14   80   5.526   4.550   5.876  2.2060  2.5684  0.8383
    1MOL     O4   81   6.073   4.446   5.815 -1.4655 -0.5666  0.3216
    1MOL    H15   82   6.104   4.948   4.932 -0.2009 -3.0410 -0.5682
    1MOL    H16   83   6.177   4.949   5.149 -1.0390 -0.7637  1.1395
    1MOL    H17   84   6.420   5.237   4.838  2.6383 -4.3346 -0.4977
    1MOL    H18   85   6.259   5.597   5.172  1.5933  1.6849 -2.0820
    1MOL    H19   86   6.482   5.721   5.248  0.8544  0.3991 -0.7017
    1MOL    H20   87   6.239   5.367   5.207 -1.8468 -3.5801  2.3609
    1MOL    H21   88   6.642   5.607   5.360  0.7602  1.9649  0.8445
    1MOL    H22   89   6.623   5.358   5.412  0.8068  0.4913 -0.1134
    1MOL    H23   90   6.469   5.209   5.556 -1.9995  1.4161 -0.5116
    1MOL    H24   91   6.477   5.250   5.081 -2.2348 -0.5470 -0.4308
    1MOL    F12   92   6.342   5.242   4.335  0.9772  0.3577  0.0110
    1MOL    C47   93   6.391   4.927   4.626 -0.2777  0.3250  0.1986
    1MOL    H25   94   6.446   4.912   4.723 -0.0781  1.6064 -0.8205
    1MOL    H26   95   6.463   4.914   4.549  0.0628 -0.3425  2.8593
    1MOL    H27   96   6.319   4.843   4.619  0.1992 -0.5088 -0.3796
    1MOL     N1   97   5.872   5.168   6.371 -0.2927  0.2438 -0.1347
    1MOL     N2   98   5.946   5.380   6.352 -0.4421  0.9187 -0.0681
    1MOL     C1   99   5.978   5.244   6.315 -0.0079 -0.5182 -0.2378
    1MOL     C2  100   5.971   5.492   6.265  0.9820  1.0248  0.0728
    1MOL     C3  101   6.067   5.487   6.164  0.1459 -0.1790  0.4437
    1MOL     C4  102   6.091   5.602   6.090  0.3194  0.6677  0.3129
    1MOL     C5  103   6.008   5.717   6.111 -0.7969 -0.1793  0.6979
    1MOL     C6  104   5.899   5.710   6.194  0.8413  0.0148 -0.4212
    1MOL     C7  105   5.888   5.606   6.282  0.0259 -0.3690  0.9794
    1MOL     N3  106   6.016   5.831   6.028 -0.1585  0.2903 -0.5082
    1MOL     C8  107   5.921   5.855   5.930  0.7158 -0.6282 -0.2166
    1MOL     C9  108   5.946   5.994   5.889  0.3654 -0.3843  0.5061
    1MOL    C10  109   6.053   6.048   5.960 -0.1681  0.5764 -0.0144
    1MOL    C11  110   6.105   5.934   6.054  0.5323 -0.1688  0.6465
    1MOL     O1  111   6.198   5.936   6.139  0.2051 -0.2914 -0.1504
    1MOL    C12  112   5.876   6.079   5.805  0.7356 -0.1133  0.3544
    1MOL    C13  113   5.925   6.206   5.772  0.5119  0.3839  0.4860
    1MOL    C14  114   6.041   6.246   5.832 -0.7282 -0.2037  0.2269
    1MOL    C15  115   6.102   6.174   5.934 -0.2950  0.2767 -0.2570
    1MOL    C16  116   5.777   6.204   5.579  0.5419  0.0517  0.1223
    1MOL    C17  117   5.842   6.091   5.525  0.4408  0.8853 -0.2053
    1MOL    C18  118   5.766   5.980   5.486 -0.2871 -0.1560 -0.3313
    1MOL    C19  119   5.638   6.208   5.577  0.1174  0.3666  0.5758
    1MOL    C20  120   5.630   5.976   5.521 -0.0089  0.3936  0.3876
    1MOL    C21  121   5.564   6.088   5.568 -0.1226  0.0274  0.2202
    1MOL    C22  122   5.868   6.297   5.666  0.6561 -0.6034 -0.1469
    1MOL    C23  123   5.781   6.407   5.737  0.1283  0.2360  0.3549
    1MOL     F1  124   5.701   6.336   5.819  0.1959 -0.1407 -0.4732
    1MOL     F2  125   5.711   6.490   5.649 -0.0391  0.2946 -0.4206
    1MOL     F3  126   5.842   6.484   5.824  0.5914 -0.7143 -0.3423
    1MOL    C24  127   5.974   6.360   5.563  0.3632  0.1528  0.4259
    1MOL     F4  128   6.025   6.479   5.613  0.2077 -0.5037  0.4696
    1MOL     F5  129   5.918   6.387   5.449  0.1364 -0.3339 -0.3338
    1MOL     F6  130   6.085   6.281   5.545 -0.4409 -0.2823  0.4668
    1MOL     O2  131   5.828   5.789   5.895  0.1518  0.8600 -0.0177
    1MOL    C25  132   5.808   5.847   5.443  0.1332  0.1554 -0.2497
    1MOL     N4  133   5.702   5.770   5.464 -0.1134 -0.9453  0.1028
    1MOL    C26  134   5.586   5.835   5.497 -0.3285 -0.2662  0.6567
    1MOL     O3  135   5.478   5.779   5.510 -0.3324  0.0066  0.0646
    1MOL    C27  136   6.098   5.178   6.309 -0.7364  0.4973 -0.0399
    1MOL    C28  137   6.156   5.151   6.430  0.3105 -0.4376  0.7744
    1MOL    C29  138   6.145   5.103   6.200 -0.5563  0.3726 -0.5036
    1MOL    C30  139   6.247   5.046   6.442 -0.4540 -0.0941  0.2299
    1MOL    C31  140   6.242   5.002   6.209  1.2569 -0.6085 -0.1412
    1MOL    C32  141   6.282   4.966   6.337 -0.7624  0.1785  0.0301
    1MOL    C33  142   6.353   4.851   6.359 -0.3844  0.7385  0.2285
    1MOL     N5  143   6.319   4.713   6.357  0.4192 -0.2064  0.0969
    1MOL     N6  144   6.475   4.848   6.433  0.4214 -0.0723  0.8125
    1MOL    C34  145   6.435   4.644   6.410 -0.5230 -0.0328 -0.5152
    1MOL    C35  146   6.527   4.720   6.456 -0.0987 -0.3163 -0.6012
    1MOL    C36  147   6.547   4.969   6.476  0.3688  0.1435  0.4425
    1MOL     H1  148   6.656   4.951   6.476 -2.2773 -0.7866  2.9192
    1MOL     H2  149   6.517   4.996   6.580  1.7119 -0.5800  1.0330
    1MOL     H3  150   6.515   5.048   6.407  1.5928 -2.4567 -2.2563
    1MOL    C37  151   6.217   4.661   6.272 -0.5255  0.7079  0.9925
    1MOL    C38  152   6.104   4.738   6.245 -0.6654 -0.7562 -0.2966
    1MOL    C39  153   6.006   4.699   6.147  0.3147 -0.2149  0.5711
    1MOL    C40  154   6.032   4.582   6.072  0.4489  0.5776 -0.9089
    1MOL    C41  155   6.146   4.506   6.104 -0.3368 -0.1836  0.3411
    1MOL    C42  156   6.240   4.547   6.197 -0.3838 -0.2056  0.2008
    1MOL    C43  157   6.663   4.684   6.493  0.4609  0.6258 -0.2238
    1MOL     F7  158   6.757   4.759   6.432  0.1797 -0.0274  0.0479
    1MOL     F8  159   6.690   4.554   6.467  0.5875 -0.5865  0.0283
    1MOL     F9  160   6.683   4.705   6.626  0.2401  0.3524  0.9081
    1MOL    C44  161   5.845   5.375   6.453  0.4752 -0.1239  0.1614
    1MOL    C45  162   5.796   5.255   6.464 -0.1210  0.0603  0.2441
    1MOL    C46  163   5.691   5.202   6.559 -0.2333  0.2326  0.1191
    1MOL    F10  164   5.601   5.128   6.490 -0.5119 -0.1644 -0.0161
    1MOL    F11  165   5.746   5.113   6.647 -0.1894  0.1805  0.5391
    1MOL     H4  166   5.833   5.466   6.510  0.9328 -1.4362 -1.9501
    1MOL     H5  167   6.129   5.405   6.148 -2.6348  0.6992  1.8546
    1MOL     H6  168   6.159   5.603   6.007 -2.7857  0.9376  0.5901
    1MOL     H7  169   5.811   5.608   6.358  1.5706 -1.2526  0.3957
    1MOL     H8  170   5.828   5.795   6.203 -1.1218  0.0529  1.6368
    1MOL     H9  171   5.773   6.054   5.776  0.2270 -1.2370  0.3146
    1MOL    H10  172   6.090   6.335   5.806  2.4773 -1.7809  0.3549
    1MOL    H11  173   6.185   6.212   5.989  1.5306 -1.9975 -0.2809
    1MOL    H12  174   5.583   6.301   5.609  2.3826  3.0118 -1.4811
    1MOL    H13  175   5.952   6.077   5.538 -0.3764 -0.2169  2.3475
    1MOL    H14  176   5.468   6.080   5.608  1.8764  1.7794 -0.2437
    1MOL     O4  177   5.914   5.819   5.397 -0.1796 -0.6007  0.4371
    1MOL    H15  178   6.125   5.217   6.511  0.2684  1.2050 -1.0692
    1MOL    H16  179   6.282   5.011   6.541  1.2492  1.8555  2.5863
    1MOL    H17  180   6.095   5.117   6.100  0.6327 -1.8702  0.3929
    1MOL    H18  181   5.925   4.763   6.125 -0.4543  0.2859 -3.0594
    1MOL    H19  182   6.087   4.828   6.302 -0.2604  0.7009  1.6891
    1MOL    H20  183   6.154   4.411   6.063  3.1234 -0.1982 -1.5358
    1MOL    H21  184   6.321   4.479   6.214 -0.7984 -0.2304  0.0679
    1MOL    H22  185   6.433   4.535   6.422 -1.3988 -3.0276 -0.5569
    1MOL    H23  186   6.279   4.951   6.121 -0.4874 -2.3132 -1.8124
    1MOL    F12  187   5.627   5.291   6.630 -0.3611 -0.0018 -0.6747
    1MOL    C47  188   5.851   5.023   6.369 -0.5473  0.2794  0.3449
    1MOL    H24  189   5.830   4.995   6.263 -0.3979 -0.3661  1.7009
    1MOL    H25  190   5.756   5.001   6.415  0.9521 -0.2259 -2.7009
    1MOL    H26  191   5.928   4.964   6.411  1.8571 -0.1621 -3.2218
    1MOL     N1  192   5.308   5.718   5.806 -0.7700  0.6795  0.6213
    1MOL     N2  193   5.130   5.598   5.726  0.7961 -0.1304 -0.0951
    1MOL     C1  194   5.263   5.635   5.699 -0.0103  0.0801 -0.3408
    1MOL     C2  195   5.053   5.519   5.637 -0.2717  0.2566 -0.5376
    1MOL     C3  196   5.045   5.543   5.504 -0.2971  0.0194  1.3320
    1MOL     C4  197   4.947   5.478   5.426 -0.3790  1.2565 -0.5878
    1MOL     C5  198   4.876   5.372   5.484  0.1949  0.1114  0.6991
    1MOL     C6  199   4.890   5.344   5.624 -0.2746  0.0094 -0.0885
    1MOL     C7  200   4.982   5.420   5.704  0.1779 -0.5586  0.6094
    1MOL     N3  201   4.788   5.304   5.399 -0.6625 -0.5133  0.9133
    1MOL     C8  202   4.659   5.283   5.435  0.2452  0.5419  0.1680
    1MOL     C9  203   4.599   5.220   5.308 -0.8845  0.0062  0.7336
    1MOL    C10  204   4.699   5.219   5.211 -0.9326  0.2064 -0.1866
    1MOL    C11  205   4.826   5.246   5.280 -0.1387 -0.4600 -0.5330
    1MOL     O1  206   4.935   5.223   5.236  0.4169  0.0604  0.0754
    1MOL    C12  207   4.482   5.158   5.289  0.2330 -0.1302  0.4009
    1MOL    C13  208   4.443   5.112   5.161 -0.3855  0.6647 -0.1195
    1MOL    C14  209   4.539   5.132   5.057 -0.3410  0.2827  0.7956
    1MOL    C15  210   4.670   5.167   5.087  0.3715  0.5629  0.0417
    1MOL    C16  211   4.207   5.090   5.240  0.1637  0.0103 -0.8306
    1MOL    C17  212   4.133   5.011   5.329  0.1207  0.5591  0.2000
    1MOL    C18  213   4.073   5.067   5.442  0.1350 -0.1707  0.4189
    1MOL    C19  214   4.196   5.231   5.255  0.6452  0.6075 -0.2200
    1MOL    C20  215   4.063   5.205   5.447  1.0150  0.6228 -0.3603
    1MOL    C21  216   4.126   5.290   5.363  0.4883  0.1724 -0.5848
    1MOL    C22  217   4.310   5.041   5.136  0.0745 -0.3904 -0.0915
    1MOL    C23  218   4.260   5.071   4.983  0.2194  0.0697 -0.2925
    1MOL     F1  219   4.124   5.037   4.977 -0.1558  0.6060  0.0927
    1MOL     F2  220   4.328   5.000   4.888  0.3635 -0.1934  0.8535
    1MOL     F3  221   4.263   5.202   4.953  0.2141 -0.1714  0.1731
    1MOL    C24  222   4.333   4.886   5.150  0.1853 -0.6280  0.4439
    1MOL     F4  223   4.435   4.851   5.066 -0.6037 -0.8156 -0.0998
    1MOL     F5  224   4.221   4.814   5.126 -0.3125  0.1388  0.0160
    1MOL     F6  225   4.379   4.862   5.275  0.5560 -0.4126  0.5010
    1MOL     O2  226   4.600   5.297   5.540  0.4038  0.0058  0.1869
    1MOL    C25  227   3.977   5.015   5.547  0.7815  0.2204  0.5067
    1MOL     N4  228   3.913   5.124   5.603  0.6827 -0.1168  0.1561
    1MOL    C26  229   3.964   5.238   5.551  0.1362  0.6124  0.1037
    1MOL     O3  230   3.934   5.352   5.573 -0.2657  0.2084  0.1554
    1MOL    C27  231   5.343   5.551   5.626  0.0682  0.5823  0.0400
    1MOL    C28  232   5.339   5.555   5.489 -0.0818  0.6702  0.0599
    1MOL    C29  233   5.385   5.434   5.690  0.4923  0.2456 -0.0350
    1MOL    C30  234   5.383   5.447   5.414 -0.2686 -0.2212 -0.8459
    1MOL    C31  235   5.439   5.331   5.612  0.1139  1.2565  0.7885
    1MOL    C32  236   5.442   5.336   5.471 -0.0180 -0.3842 -0.6163
    1MOL    C33  237   5.500   5.233   5.397 -0.0628 -0.5753  0.2169
    1MOL     N5  238   5.616   5.243   5.321 -0.3231 -0.2923  0.3818
    1MOL     N6  239   5.435   5.113   5.355  0.5640 -0.2236 -0.1863
    1MOL    C34  240   5.624   5.138   5.230 -0.8535 -0.2891  0.3320
    1MOL    C35  241   5.516   5.063   5.255 -0.5402 -0.0595  0.0441
    1MOL    C36  242   5.371   5.014   5.447  0.3440  0.2966 -0.5056
    1MOL     H1  243   5.288   4.972   5.387  0.6864  1.0001 -0.8742
    1MOL     H2  244   5.325   5.071   5.529 -0.0933 -0.2338 -1.0482
    1MOL     H3  245   5.455   4.946   5.491 -0.6925  0.7794  2.5075
    1MOL    C37  246   5.683   5.362   5.332 -0.1996  0.2862  0.7539
    1MOL    C38  247   5.648   5.473   5.246 -0.0642 -0.2570  1.2986
    1MOL    C39  248   5.658   5.603   5.290 -0.6725 -0.3453  0.0543
    1MOL    C40  249   5.706   5.632   5.423  0.1807  0.1732 -0.7624
    1MOL    C41  250   5.749   5.525   5.507 -0.8267 -0.3366  0.3645
    1MOL    C42  251   5.735   5.397   5.457  0.2081  0.0179 -0.4279
    1MOL    C43  252   5.469   4.944   5.167 -0.3187 -0.0574  0.2864
    1MOL     F7  253   5.329   4.923   5.160  0.2140 -0.2704 -0.1047
    1MOL     F8  254   5.522   4.827   5.217 -0.3941 -0.0332  0.0505
    1MOL     F9  255   5.510   4.955   5.041 -0.1730  0.1716  0.0376
    1MOL    C44  256   5.108   5.632   5.858 -0.0120  0.4169  0.9579
    1MOL    C45  257   5.211   5.691   5.906 -0.3339 -0.2153 -0.0683
    1MOL    C46  258   5.235   5.712   6.057 -0.4573  0.1430  0.0548
    1MOL    F10  259   5.199   5.601   6.123  0.1578 -0.0365 -0.0285
    1MOL    F11  260   5.363   5.739   6.074 -0.5591  0.0320 -0.4281
    1MOL     H4  261   5.019   5.591   5.917  1.9196  1.6381 -2.1795
    1MOL     H5  262   5.112   5.614   5.467  1.3125 -1.9286  1.3625
    1MOL     H6  263   4.932   5.496   5.320 -1.8502 -1.7481  0.0563
    1MOL     H7  264   5.008   5.387   5.803  2.6028 -0.4810 -0.8159
    1MOL     H8  265   4.850   5.255   5.664  0.4746 -1.0832 -1.5562
    1MOL     H9  266   4.421   5.145   5.373 -1.7615  0.3950 -4.9096
    1MOL    H10  267   4.513   5.105   4.950  0.6472  2.1544 -0.5597
    1MOL    H11  268   4.750   5.151   5.012  0.3001 -0.0702 -0.9577
    1MOL    H12  269   4.255   5.295   5.189 -1.4191  1.0979  2.0915
    1MOL    H13  270   4.129   4.902   5.309 -1.4312  0.6400  0.8843
    1MOL    H14  271   4.115   5.396   5.378 -2.5084  1.7490 -1.7820
    1MOL     O4  272   3.957   4.897   5.572 -0.1101 -0.8477 -0.3723
    1MOL    H15  273   5.309   5.650   5.447 -0.7866 -0.6558 -1.2250
    1MOL    H16  274   5.374   5.457   5.301  1.9597  1.3279  0.6445
    1MOL    H17  275   5.387   5.423   5.795 -0.2663 -1.4651 -0.7440
    1MOL    H18  276   5.609   5.682   5.235  0.4431  2.2787 -0.2731
    1MOL    H19  277   5.583   5.460   5.153 -1.4013 -2.6820  1.3054
    1MOL    H20  278   5.795   5.544   5.604 -3.3871 -2.4572 -2.5928
    1MOL    H21  279   5.754   5.321   5.537 -0.4709  0.9181  1.2248
    1MOL    H22  280   5.706   5.126   5.155  0.4311 -0.3734  0.2442
    1MOL    H23  281   5.472   5.244   5.672 -0.8140  0.2838 -1.0278
    1MOL    F12  282   5.161   5.813   6.107  0.1343  0.4989  0.8557
    1MOL    C47  283   5.362   5.846   5.779  0.1715 -0.1115 -0.2762
    1MOL    H24  284   5.304   5.923   5.829 -0.2371  2.6486 -0.4169
    1MOL    H25  285   5.354   5.863   5.670 -2.6362 -0.4624 -0.5192
    1MOL    H26  286   5.467   5.848   5.820 -1.2764  0.3750 -0.3945
    1MOL     N1  287   3.649   4.328   5.668  0.2479  0.0040 -0.4233
    1MOL     N2  288   3.841   4.409   5.761 -0.3262 -0.3312  0.6498
    1MOL     C1  289   3.708   4.448   5.715  0.2984  0.1566  0.1621
    1MOL     C2  290   3.953   4.484   5.744  0.7586 -0.1220 -0.5618
    1MOL     C3  291   3.979   4.594   5.827 -0.3148 -0.1941 -0.3925
    1MOL     C4  292   4.094   4.672   5.809  0.0380  0.1261 -0.0323
    1MOL     C5  293   4.189   4.631   5.712  0.5087 -0.3492 -0.1181
    1MOL     C6  294   4.168   4.519   5.636 -0.3613 -0.1934  0.5410
    1MOL     C7  295   4.050   4.448   5.649  0.2597  0.4847  0.5577
    1MOL     N3  296   4.310   4.704   5.703  1.2881 -0.2373 -0.6984
    1MOL     C8  297   4.438   4.643   5.691  0.0923 -0.1902 -0.3027
    1MOL     C9  298   4.536   4.744   5.645 -0.2270 -0.0433  0.0679
    1MOL    C10  299   4.469   4.864   5.644 -0.5589 -0.2966  0.4769
    1MOL    C11  300   4.323   4.840   5.677 -0.1290  0.0714  0.5856
    1MOL     O1  301   4.231   4.923   5.659 -0.5766  0.3149 -0.0329
    1MOL    C12  302   4.675   4.721   5.629 -0.1161  0.2628  0.3772
    1MOL    C13  303   4.753   4.837   5.599  0.2308 -0.4224  0.6616
    1MOL    C14  304   4.681   4.963   5.584 -0.1677  0.4324 -0.5776
    1MOL    C15  305   4.545   4.980   5.613  0.4579 -0.5181 -0.5511
    1MOL    C16  306   4.930   4.705   5.468 -0.1236  0.4572 -0.2122
    1MOL    C17  307   4.821   4.663   5.392 -0.8196 -0.2089 -0.6921
    1MOL    C18  308   4.844   4.564   5.302  0.1651 -0.0760 -0.3031
    1MOL    C19  309   5.060   4.650   5.444  0.0595  0.3478 -0.3170
    1MOL    C20  310   4.964   4.496   5.288 -0.4522 -0.0977  0.8855
    1MOL    C21  311   5.078   4.540   5.355  0.1041  0.2327  0.3364
    1MOL    C22  312   4.905   4.822   5.569 -0.1360 -0.3692  0.4249
    1MOL    C23  313   4.968   4.952   5.509  0.9594 -0.4251  0.1622
    1MOL     F1  314   5.098   4.927   5.473  0.0956  0.2070  0.6694
    1MOL     F2  315   4.962   5.052   5.598 -0.2002 -0.1149 -0.4498
    1MOL     F3  316   4.897   4.987   5.400  0.1685  0.0768  0.1131
    1MOL    C24  317   4.970   4.779   5.705  0.0946 -0.5180  0.6159
    1MOL     F4  318   4.935   4.864   5.806  0.4589  0.5719  0.0648
    1MOL     F5  319   5.106   4.790   5.709  0.4453  0.1263  0.3725
    1MOL     F6  320   4.952   4.651   5.737 -0.0215  0.1644  0.3796
    1MOL     O2  321   4.461   4.525   5.710 -0.2900 -0.6383 -0.5289
    1MOL    C25  322   4.741   4.483   5.232 -0.2248  0.4104 -1.0756
    1MOL     N4  323   4.808   4.378   5.169 -0.3657  0.0255 -0.8160
    1MOL    C26  324   4.939   4.382   5.203 -0.3887 -0.1877  0.0403
    1MOL     O3  325   5.021   4.293   5.173 -0.7062 -0.1717  0.0373
    1MOL    C27  326   3.642   4.567   5.744 -0.2217  0.1787 -0.4792
    1MOL    C28  327   3.649   4.616   5.875  0.7043 -0.5565  0.9830
    1MOL    C29  328   3.552   4.631   5.656 -0.5862 -0.8989 -0.3767
    1MOL    C30  329   3.570   4.719   5.921 -0.4370  0.0956 -0.2185
    1MOL    C31  330   3.461   4.724   5.700  0.1636 -0.1750 -0.8659
    1MOL    C32  331   3.476   4.784   5.833 -0.0813 -0.0313  0.1684
    1MOL    C33  332   3.398   4.885   5.881 -0.3640  0.1878 -0.1827
    1MOL     N5  333   3.433   5.022   5.887  0.0067  0.1659  0.4810
    1MOL     N6  334   3.293   4.857   5.972 -0.3062 -0.4418  0.1197
    1MOL    C34  335   3.362   5.063   6.008  0.0025 -0.2701 -0.3421
    1MOL    C35  336   3.286   4.972   6.056  0.0098  0.9285 -0.1996
    1MOL    C36  337   3.182   4.761   5.946 -0.3475 -0.2171 -0.6283
    1MOL     H1  338   3.231   4.664   5.947 -1.6974 -0.6332 -0.4570
    1MOL     H2  339   3.135   4.781   5.848 -0.2792 -2.2812 -0.0774
    1MOL     H3  340   3.102   4.778   6.027 -1.8492  0.1458  1.0005
    1MOL    C37  341   3.552   5.067   5.824  0.4449 -0.3369  0.1184
    1MOL    C38  342   3.556   5.061   5.679 -0.5394  0.9266  0.1336
    1MOL    C39  343   3.684   5.077   5.617  0.9094  0.0393 -0.2387
    1MOL    C40  344   3.798   5.116   5.683  0.1171  0.4356  0.3465
    1MOL    C41  345   3.787   5.135   5.824 -0.5832  0.3185 -0.1357
    1MOL    C42  346   3.663   5.113   5.895 -0.2569  0.2052 -0.7704
    1MOL    C43  347   3.219   4.964   6.190  1.0174  0.5854 -0.7318
    1MOL     F7  348   3.270   4.855   6.265  0.2592  0.0103 -0.3791
    1MOL     F8  349   3.092   4.958   6.189 -0.2424 -0.4675  0.3870
    1MOL     F9  350   3.249   5.067   6.259 -0.1064 -0.2969  0.3842
    1MOL    C44  351   3.844   4.269   5.758 -0.2818  0.2414 -0.5567
    1MOL    C45  352   3.736   4.223   5.705  0.3771 -0.0502  0.3930
    1MOL    C46  353   3.697   4.079   5.701  0.3125 -0.8017 -0.0206
    1MOL    F10  354   3.672   4.043   5.568  0.0375 -0.0596 -0.1074
    1MOL    F11  355   3.787   4.001   5.763  0.0800 -0.4864  0.0960
    1MOL     H4  356   3.934   4.219   5.785 -1.2331  2.0051  0.1480
    1MOL     H5  357   3.905   4.626   5.901 -3.5225 -2.1999 -0.4923
    1MOL     H6  358   4.097   4.765   5.864 -3.1647  0.3910  0.7833
    1MOL     H7  359   4.034   4.359   5.592  1.3794  0.6505 -1.8187
    1MOL     H8  360   4.252   4.487   5.575  0.0353  0.7874 -0.6682
    1MOL     H9  361   4.715   4.625   5.634 -1.2263  2.1838 -0.2451
    1MOL    H10  362   4.732   5.055   5.555 -0.6282  1.2029 -0.1663
    1MOL    H11  363   4.491   5.069   5.600  0.5287 -0.3335 -1.2881
    1MOL    H12  364   5.145   4.687   5.496 -1.8209  1.2892  0.1738
    1MOL    H13  365   4.726   4.708   5.392 -0.5008 -0.3149 -0.5990
    1MOL    H14  366   5.174   4.486   5.343 -1.6636 -2.8396  0.0160
    1MOL     O4  367   4.622   4.505   5.228  0.2661  0.1061 -0.5509
    1MOL    H15  368   3.723   4.573   5.945  1.6388  0.7910  1.8217
    1MOL    H16  369   3.573   4.753   6.025 -0.9229 -1.3248  0.4456
    1MOL    H17  370   3.540   4.593   5.557 -1.5922  1.9529  1.9204
    1MOL    H18  371   3.694   5.044   5.517  1.4839 -1.1077  1.6477
    1MOL    H19  372   3.475   5.025   5.613 -0.4638  2.1775  0.9834
    1MOL    H20  373   3.871   5.181   5.873 -0.1313  1.0688  0.4067
    1MOL    H21  374   3.662   5.126   6.003 -0.7553  0.0051 -0.9289
    1MOL    H22  375   3.393   5.156   6.053  0.5811 -0.6667 -0.0709
    1MOL    H23  376   3.385   4.753   5.627  2.4208 -1.1944  1.3230
    1MOL    F12  377   3.576   4.055   5.751 -0.5263  0.2377 -0.2608
    1MOL    C47  378   3.508   4.302   5.628 -0.4417  0.5168 -0.4184
    1MOL    H24  379   3.439   4.269   5.714 -2.2170 -1.5679 -0.2145
    1MOL    H25  380   3.514   4.217   5.569  2.2309  0.9711  0.1721
    1MOL    H26  381   3.470   4.380   5.572 -3.5493 -1.5078  1.9302
    1MOL     N1  382   5.298   4.203   4.891 -0.4880 -0.1707  0.1606
    1MOL     N2  383   5.403   4.096   5.065 -0.4917 -0.4600  0.1107
    1MOL     C1  384   5.279   4.109   4.995  0.2070 -0.1685  0.1651
    1MOL     C2  385   5.439   4.014   5.172  0.0214  0.4123  0.3645
    1MOL     C3  386   5.375   4.041   5.294 -0.5882 -0.8194 -0.3365
    1MOL     C4  387   5.397   3.959   5.402 -0.6094 -0.7417 -0.0570
    1MOL     C5  388   5.478   3.846   5.393  0.5442  0.7019  0.3426
    1MOL     C6  389   5.553   3.828   5.275 -0.2569  0.3341 -0.6429
    1MOL     C7  390   5.539   3.916   5.164  0.3446  0.3851  0.2452
    1MOL     N3  391   5.501   3.772   5.510 -0.3338 -0.2148 -0.7474
    1MOL     C8  392   5.625   3.747   5.562 -0.6156 -0.0998  0.2623
    1MOL     C9  393   5.598   3.644   5.664  0.2784 -0.1088  0.1662
    1MOL    C10  394   5.463   3.619   5.672 -0.2481 -0.3481  0.7639
    1MOL    C11  395   5.398   3.706   5.568  0.1765 -0.3224 -0.1852
    1MOL     O1  396   5.278   3.723   5.553  0.7278  0.1735  0.2813
    1MOL    C12  397   5.687   3.585   5.754  0.3480 -0.4273  0.1219
    1MOL    C13  398   5.638   3.499   5.855 -0.3960 -1.1781 -0.7212
    1MOL    C14  399   5.494   3.477   5.861 -0.3338  0.6178 -0.0737
    1MOL    C15  400   5.405   3.537   5.773 -0.4929  0.0276 -0.0706
    1MOL    C16  401   5.799   3.578   6.038  0.1278 -0.3057  0.6421
    1MOL    C17  402   5.702   3.680   6.067 -0.0869 -0.0118 -0.3330
    1MOL    C18  403   5.735   3.787   6.148 -0.4909 -0.1616  0.8799
    1MOL    C19  404   5.927   3.596   6.093 -0.2785 -0.1407 -0.1439
    1MOL    C20  405   5.856   3.796   6.209  0.2837 -0.5724  0.4327
    1MOL    C21  406   5.958   3.702   6.180 -1.1113 -0.3002 -0.0745
    1MOL    C22  407   5.745   3.452   5.958  0.2479 -0.2504  0.3253
    1MOL    C23  408   5.674   3.365   6.066  0.1554  0.1363 -0.2396
    1MOL     F1  409   5.770   3.341   6.158 -0.0576 -0.1701 -0.1280
    1MOL     F2  410   5.622   3.253   6.012 -0.2891  0.3299 -0.3435
    1MOL     F3  411   5.578   3.423   6.137  0.3879  0.0980  0.0876
    1MOL    C24  412   5.861   3.384   5.886  0.1821 -0.2871 -1.0543
    1MOL     F4  413   5.795   3.299   5.808 -0.2713 -0.1200 -0.4147
    1MOL     F5  414   5.949   3.308   5.962 -0.0253  0.2147  0.1879
    1MOL     F6  415   5.934   3.468   5.807  0.1523 -0.1992  0.6967
    1MOL     O2  416   5.734   3.778   5.519 -0.8137  0.9275 -0.1408
    1MOL    C25  417   5.653   3.899   6.195 -0.0615 -0.6625  0.1458
    1MOL     N4  418   5.747   3.979   6.256  0.0830 -0.3548 -0.1232
    1MOL    C26  419   5.865   3.920   6.288  0.4144  0.5194 -0.0756
    1MOL     O3  420   5.948   3.960   6.372 -0.5267  0.2181  0.3014
    1MOL    C27  421   5.160   4.037   5.014 -0.4710 -0.0187 -0.5432
    1MOL    C28  422   5.109   4.019   5.137 -0.3949  0.6589 -0.0211
    1MOL    C29  423   5.090   3.972   4.906  0.6562  0.6686 -0.8964
    1MOL    C30  424   4.998   3.941   5.163 -0.0801 -0.3614 -0.3781
    1MOL    C31  425   4.972   3.901   4.931  0.0128  0.2570  0.4872
    1MOL    C32  426   4.930   3.874   5.060  0.6961  0.0390  0.3900
    1MOL    C33  427   4.813   3.803   5.095 -0.0831 -0.2691  0.1177
    1MOL     N5  428   4.686   3.862   5.104  0.0062 -0.4926  0.4472
    1MOL     N6  429   4.800   3.675   5.158 -0.2690 -0.0457 -0.2088
    1MOL    C34  430   4.600   3.763   5.162  0.2115 -0.8463  0.5017
    1MOL    C35  431   4.669   3.650   5.192  0.4556 -0.5117 -0.4941
    1MOL    C36  432   4.913   3.582   5.160  0.4811  0.1443  0.3168
    1MOL     H1  433   4.869   3.493   5.108 -1.2144 -0.0690 -1.3178
    1MOL     H2  434   4.939   3.559   5.260  0.7957 -1.3151 -0.2566
    1MOL     H3  435   5.007   3.636   5.122  1.8608 -1.1046  0.7366
    1MOL    C37  436   4.673   4.001   5.098 -1.4262  0.0911 -0.4527
    1MOL    C38  437   4.657   4.063   5.216 -0.6574 -0.0134  0.2019
    1MOL    C39  438   4.686   4.193   5.237  0.1344 -0.2549  0.7146
    1MOL    C40  439   4.740   4.267   5.132  0.2251  0.2484 -0.8412
    1MOL    C41  440   4.751   4.213   5.001  0.6983  0.1904  0.3909
    1MOL    C42  441   4.709   4.077   4.984 -0.6953  0.7192  0.4207
    1MOL    C43  442   4.633   3.516   5.261 -0.0507 -0.0526 -0.4875
    1MOL     F7  443   4.693   3.417   5.195 -0.3329 -0.1512  0.2674
    1MOL     F8  444   4.500   3.499   5.273 -0.0873  0.0429 -0.3637
    1MOL     F9  445   4.680   3.520   5.393 -0.3204  0.1525 -0.2322
    1MOL    C44  446   5.492   4.185   5.002 -0.1720  0.7670 -0.2511
    1MOL    C45  447   5.430   4.246   4.901 -0.0483 -0.1700  0.0764
    1MOL    C46  448   5.490   4.352   4.810 -0.2291  0.7728 -0.2080
    1MOL    F10  449   5.629   4.335   4.815  0.3310  0.4527 -0.0371
    1MOL    F11  450   5.449   4.333   4.680  0.3277 -0.2800  0.1989
    1MOL     H4  451   5.597   4.195   5.037  0.8991 -0.1234  2.6000
    1MOL     H5  452   5.315   4.138   5.296 -0.6438 -0.5762  2.1874
    1MOL     H6  453   5.358   3.986   5.504 -1.9867  0.5979 -0.6930
    1MOL     H7  454   5.599   3.900   5.072 -0.4752 -1.6699  1.2885
    1MOL     H8  455   5.629   3.753   5.274  0.0127  1.5448  1.0952
    1MOL     H9  456   5.788   3.618   5.743 -0.9155 -2.1524 -0.3556
    1MOL    H10  457   5.459   3.411   5.943  1.8384 -1.7978  2.3951
    1MOL    H11  458   5.304   3.509   5.778  0.5637 -0.5326  0.5060
    1MOL    H12  459   6.009   3.518   6.082  1.9245 -1.1211  0.3546
    1MOL    H13  460   5.605   3.680   6.024  0.2344  0.2512 -0.5084
    1MOL    H14  461   6.052   3.721   6.224  2.2118  1.7282  2.4606
    1MOL     O4  462   5.538   3.930   6.173  0.7328  0.1488 -0.3468
    1MOL    H15  463   5.142   4.085   5.220 -1.2698 -1.2384 -1.4865
    1MOL    H16  464   4.953   3.940   5.260  0.3567 -1.4619 -0.8318
    1MOL    H17  465   5.114   3.992   4.799 -0.9925 -4.1011  0.5406
    1MOL    H18  466   4.687   4.237   5.335  1.2672  1.8716  1.0481
    1MOL    H19  467   4.631   4.018   5.311  0.5121 -0.5659  0.7973
    1MOL    H20  468   4.797   4.262   4.917  0.2511 -1.7416  4.5772
    1MOL    H21  469   4.730   4.025   4.896  0.9846  0.9611  0.4677
    1MOL    H22  470   4.500   3.782   5.174  2.6814 -0.2915 -1.8311
    1MOL    H23  471   4.912   3.863   4.843  1.7901 -0.0097  0.0994
    1MOL    F12  472   5.465   4.472   4.858  0.1820 -0.8761 -0.2835
    1MOL    C47  473   5.189   4.298   4.869 -0.6024  0.3956  0.2857
    1MOL    H24  474   5.220   4.388   4.818  0.5192 -0.3914  1.2010
    1MOL    H25  475   5.137   4.329   4.959 -2.5265 -0.5052 -2.2911
    1MOL    H26  476   5.115   4.249   4.800  3.2030  0.3134 -1.2464
    1MOL     N1  477   6.183   4.502   6.711 -0.3672  0.2340  0.0542
    1MOL     N2  478   6.167   4.724   6.788  0.6533 -0.4866 -0.4057
    1MOL     C1  479   6.107   4.624   6.704 -0.7578 -0.0682 -0.0853
    1MOL     C2  480   6.119   4.851   6.817  0.0515  0.7644 -0.0342
    1MOL     C3  481   6.069   4.920   6.707  0.8899  0.7084  0.4885
    1MOL     C4  482   6.028   5.054   6.723  0.5858  0.1732  0.1248
    1MOL     C5  483   6.022   5.110   6.847  0.5085 -0.6108  0.2687
    1MOL     C6  484   6.058   5.037   6.962 -0.0436  0.5351 -0.4297
    1MOL     C7  485   6.109   4.910   6.943  0.3874 -0.6664 -0.1184
    1MOL     N3  486   5.984   5.245   6.859 -0.0642  0.4228  0.3421
    1MOL     C8  487   5.886   5.289   6.946 -0.4182 -0.2271  0.3714
    1MOL     C9  488   5.878   5.435   6.933  0.0010  0.1187  0.8177
    1MOL    C10  489   5.974   5.476   6.843 -0.4503 -0.5151 -0.2918
    1MOL    C11  490   6.039   5.356   6.786  0.7419  0.0348  0.2144
    1MOL     O1  491   6.113   5.355   6.691 -0.1572 -0.2029 -0.0036
    1MOL    C12  492   5.771   5.517   6.969 -0.4574 -0.0497  0.2538
    1MOL    C13  493   5.766   5.650   6.922  0.5219  0.5502 -0.1249
    1MOL    C14  494   5.870   5.697   6.841 -0.4179 -0.0945  0.3669
    1MOL    C15  495   5.975   5.611   6.801 -0.2279  0.1140  0.2793
    1MOL    C16  496   5.528   5.655   6.909 -0.3837 -0.6548  0.0203
    1MOL    C17  497   5.528   5.599   6.777 -0.1633 -0.6384  0.2286
    1MOL    C18  498   5.423   5.525   6.729  0.4005 -0.2380  0.4018
    1MOL    C19  499   5.415   5.628   6.992  0.1758  0.1302  0.5286
    1MOL    C20  500   5.315   5.506   6.811 -0.4937 -0.0623 -0.1173
    1MOL    C21  501   5.311   5.559   6.940  0.2941  0.4254 -0.4995
    1MOL    C22  502   5.643   5.735   6.958  0.0526 -0.1700  0.0791
    1MOL    C23  503   5.642   5.755   7.119  0.2671  0.0977 -0.1633
    1MOL     F1  504   5.628   5.642   7.190  0.4541 -0.4606 -0.0410
    1MOL     F2  505   5.546   5.835   7.167 -0.0279  0.2877  0.4693
    1MOL     F3  506   5.752   5.815   7.171  0.2166  0.5317  0.0726
    1MOL    C24  507   5.641   5.882   6.900 -0.0751  0.3634  1.1226
    1MOL     F4  508   5.521   5.941   6.934  0.5992 -0.1893  0.1965
    1MOL     F5  509   5.635   5.881   6.765 -0.3910  0.0038  0.7634
    1MOL     F6  510   5.733   5.968   6.934  0.1693  0.0182 -0.2996
    1MOL     O2  511   5.830   5.216   7.030 -0.1337 -0.1040  0.2315
    1MOL    C25  512   5.402   5.462   6.600 -0.4212  1.0484 -0.1835
    1MOL     N4  513   5.279   5.395   6.617  0.0361 -0.0566 -0.1262
    1MOL    C26  514   5.222   5.415   6.739  0.1553 -0.0022 -0.1512
    1MOL     O3  515   5.116   5.373   6.783 -0.0702 -0.7217  0.4640
    1MOL    C27  516   5.985   4.628   6.640 -0.2920  0.1310  0.6104
    1MOL    C28  517   5.974   4.685   6.518 -0.4990  0.7755 -0.2080
    1MOL    C29  518   5.879   4.559   6.700 -0.1234  0.6053  0.4338
    1MOL    C30  519   5.848   4.685   6.456 -0.1790 -0.8654 -0.1380
    1MOL    C31  520   5.750   4.557   6.642  0.4431 -0.1290 -0.1291
    1MOL    C32  521   5.738   4.614   6.516  0.1971  0.2716  0.4360
    1MOL    C33  522   5.625   4.614   6.440  0.3421 -0.0709 -0.5937
    1MOL     N5  523   5.585   4.509   6.351  0.3116 -0.1477 -0.5001
    1MOL     N6  524   5.550   4.731   6.414  0.8066 -0.0899 -0.1930
    1MOL    C34  525   5.490   4.571   6.273 -0.1539 -0.1037 -0.0040
    1MOL    C35  526   5.463   4.694   6.311 -0.2601 -0.6807 -0.1380
    1MOL    C36  527   5.511   4.826   6.520  0.3093 -0.2558 -0.1966
    1MOL     H1  528   5.469   4.921   6.485 -1.3030 -2.2553  0.0814
    1MOL     H2  529   5.594   4.842   6.593  0.6668  1.5097  0.1610
    1MOL     H3  530   5.433   4.764   6.569  0.4406 -0.7885  1.0583
    1MOL    C37  531   5.633   4.381   6.333  1.1369  0.0782 -0.0783
    1MOL    C38  532   5.759   4.361   6.278 -0.2228  0.0088 -0.2830
    1MOL    C39  533   5.800   4.227   6.255 -0.2522 -0.2794  0.1276
    1MOL    C40  534   5.719   4.115   6.294  0.7404 -0.1414  0.0015
    1MOL    C41  535   5.600   4.143   6.357 -0.1197 -0.8709 -0.0535
    1MOL    C42  536   5.561   4.270   6.380  0.5391  0.4409  0.5388
    1MOL    C43  537   5.359   4.781   6.250  0.2166  0.7168 -0.4818
    1MOL     F7  538   5.405   4.917   6.250  0.3040  0.1799  0.4443
    1MOL     F8  539   5.232   4.776   6.306 -0.0590  0.4895 -0.5480
    1MOL     F9  540   5.336   4.743   6.116  0.5400 -0.0737  0.0326
    1MOL    C44  541   6.262   4.646   6.858  0.0945  0.5496 -0.5032
    1MOL    C45  542   6.282   4.524   6.809  0.2641 -0.6515  0.3589
    1MOL    C46  543   6.388   4.427   6.843  0.4995  0.4725 -0.1305
    1MOL    F10  544   6.367   4.304   6.784  0.0212  0.4866 -0.2474
    1MOL    F11  545   6.511   4.476   6.812 -0.3702 -0.2702  0.3519
    1MOL     H4  546   6.323   4.695   6.939 -1.4352  0.9658 -0.8787
    1MOL     H5  547   6.077   4.873   6.609  1.8976 -1.0242  0.7779
    1MOL     H6  548   6.002   5.116   6.638  1.8427  0.9726  1.7974
    1MOL     H7  549   6.130   4.850   7.035  1.0106 -2.1883  3.7993
    1MOL     H8  550   6.054   5.080   7.060  0.3675  0.9661 -1.9950
    1MOL     H9  551   5.691   5.477   7.026 -0.4620 -0.2898 -0.6416
    1MOL    H10  552   5.855   5.801   6.803 -0.8511 -2.2284 -0.7393
    1MOL    H11  553   6.048   5.656   6.734  0.3113 -0.1174  2.3236
    1MOL    H12  554   5.393   5.669   7.090 -5.5179  0.6007  1.6024
    1MOL    H13  555   5.618   5.599   6.715  0.2601 -1.6716  0.2147
    1MOL    H14  556   5.230   5.535   7.006 -2.5701 -2.3923 -1.2010
    1MOL     O4  557   5.475   5.471   6.504  0.2656  0.3534  0.5628
    1MOL    H15  558   6.058   4.738   6.473  1.1031  0.4581  3.8502
    1MOL    H16  559   5.846   4.721   6.357 -0.6919 -1.4816  2.2675
    1MOL    H17  560   5.889   4.508   6.792  0.9940 -2.0477 -2.3448
    1MOL    H18  561   5.897   4.217   6.193  0.8141  3.3069 -1.0795
    1MOL    H19  562   5.823   4.441   6.257 -0.0991 -2.8265 -0.0927
    1MOL    H20  563   5.528   4.062   6.375  2.0487 -0.4678  1.6999
    1MOL    H21  564   5.455   4.282   6.414  0.2277 -2.7917 -2.3993
    1MOL    H22  565   5.442   4.516   6.189  1.4642  3.0814  1.4825
    1MOL    H23  566   5.663   4.516   6.693 -0.6869  1.2489  0.8631
    1MOL    F12  567   6.392   4.401   6.978 -0.2501 -0.5594  0.2717
    1MOL    C47  568   6.204   4.436   6.578  0.1543  0.3031  0.2030
    1MOL    H24  569   6.233   4.330   6.591  0.6727 -1.6671  1.9797
    1MOL    H25  570   6.283   4.475   6.516 -0.7718  1.7857  1.7892
    1MOL    H26  571   6.107   4.454   6.515  0.4142  0.1232  1.2621
    1MOL     N1  572   5.310   5.098   6.945  0.3598 -0.6111  0.7099
    1MOL     N2  573   5.136   5.200   7.055  0.8913  0.6703  0.5929
    1MOL     C1  574   5.167   5.114   6.947 -0.3866  0.3489 -0.3552
    1MOL     C2  575   5.010   5.253   7.080  0.1496  0.0291  0.5422
    1MOL     C3  576   4.898   5.177   7.049  0.6404  0.0070  0.0288
    1MOL     C4  577   4.781   5.249   7.021  0.1436  0.9210  0.3740
    1MOL     C5  578   4.787   5.390   7.006  0.3714  0.3270  0.1749
    1MOL     C6  579   4.894   5.465   7.056 -0.3142 -0.2898 -0.3241
    1MOL     C7  580   5.004   5.394   7.110 -0.3415  0.3573  0.1257
    1MOL     N3  581   4.696   5.450   6.914  0.5753 -0.3287 -0.7364
    1MOL     C8  582   4.629   5.562   6.934  0.6136 -0.0723  0.6560
    1MOL     C9  583   4.557   5.581   6.801  0.1114 -0.3029  0.2248
    1MOL    C10  584   4.599   5.480   6.714  0.2702  0.2837 -0.0093
    1MOL    C11  585   4.695   5.398   6.785 -0.3446 -0.0077 -0.0436
    1MOL     O1  586   4.767   5.305   6.750  0.2205  0.4416  0.2582
    1MOL    C12  587   4.455   5.673   6.767  0.4347 -0.2936 -0.9863
    1MOL    C13  588   4.400   5.663   6.636 -0.5382 -0.6174 -0.0680
    1MOL    C14  589   4.451   5.568   6.544  0.1313  0.5026  0.3032
    1MOL    C15  590   4.549   5.473   6.583  0.4912  0.3755  0.0819
    1MOL    C16  591   4.352   5.850   6.469 -0.9931 -0.3827 -0.0988
    1MOL    C17  592   4.262   5.912   6.380 -0.4789 -0.0047  0.2410
    1MOL    C18  593   4.311   5.994   6.272  0.7424 -0.5748  0.6976
    1MOL    C19  594   4.493   5.875   6.456  0.0918  0.7392 -0.5566
    1MOL    C20  595   4.446   6.007   6.252 -0.3015 -0.2352 -0.4542
    1MOL    C21  596   4.534   5.950   6.345  0.8226 -0.9914  0.2524
    1MOL    C22  597   4.295   5.764   6.589 -0.0886  0.3261  0.1781
    1MOL    C23  598   4.164   5.676   6.550  0.3053 -0.2060  0.0706
    1MOL     F1  599   4.129   5.610   6.667  0.1894  0.6198 -0.0631
    1MOL     F2  600   4.181   5.582   6.455  0.2578  0.0795 -0.2033
    1MOL     F3  601   4.055   5.746   6.506  0.2828  1.1860  0.0473
    1MOL    C24  602   4.251   5.870   6.694 -0.1971  0.1060 -0.4017
    1MOL     F4  603   4.160   5.954   6.634  0.3288  0.3839 -0.0651
    1MOL     F5  604   4.355   5.952   6.731 -0.0844  0.4853 -0.6075
    1MOL     F6  605   4.193   5.813   6.802  0.1876  0.4359 -0.3556
    1MOL     O2  606   4.626   5.620   7.040 -0.8113  0.3380 -0.9151
    1MOL    C25  607   4.235   6.067   6.178 -0.1312  0.5760  0.3566
    1MOL     N4  608   4.334   6.112   6.089  0.4308  0.1619 -0.1208
    1MOL    C26  609   4.462   6.089   6.128  0.1586 -0.2436  0.7049
    1MOL     O3  610   4.558   6.140   6.072  0.1066  0.3539  0.2463
    1MOL    C27  611   5.087   5.052   6.853  1.2394 -0.1862 -0.0417
    1MOL    C28  612   4.997   5.124   6.783 -0.8077 -0.0022 -0.6395
    1MOL    C29  613   5.102   4.916   6.831  0.0153  0.1753  0.3512
    1MOL    C30  614   4.927   5.067   6.675  0.5687 -0.1458  0.0572
    1MOL    C31  615   5.034   4.854   6.720 -0.1123 -0.2905 -0.2128
    1MOL    C32  616   4.961   4.936   6.631  0.0054 -0.7924  0.3794
    1MOL    C33  617   4.940   4.901   6.501  0.8515 -0.0431  0.3515
    1MOL     N5  618   5.036   4.943   6.403  0.0495 -0.3410  0.2051
    1MOL     N6  619   4.839   4.819   6.440  0.1570 -0.0025  0.1889
    1MOL    C34  620   4.986   4.892   6.281 -1.2324  0.0024  0.1724
    1MOL    C35  621   4.869   4.828   6.297  0.4844 -0.5255 -0.1036
    1MOL    C36  622   4.744   4.735   6.513  0.4109  0.0774 -0.5114
    1MOL     H1  623   4.737   4.629   6.478  0.5686  2.4274 -0.0750
    1MOL     H2  624   4.642   4.785   6.501  1.5788  0.2049  0.7788
    1MOL     H3  625   4.774   4.732   6.621 -0.2398 -0.0155  0.9826
    1MOL    C37  626   5.110   5.058   6.426 -0.3940 -0.1467 -1.1453
    1MOL    C38  627   5.042   5.184   6.405  0.1146 -0.2919 -0.0792
    1MOL    C39  628   5.108   5.302   6.461  0.0420 -0.8998  0.0918
    1MOL    C40  629   5.232   5.293   6.522  1.0267  0.0058 -0.0083
    1MOL    C41  630   5.298   5.167   6.529  1.2218 -0.1271 -0.3194
    1MOL    C42  631   5.234   5.048   6.494 -0.0746  0.5208  0.2739
    1MOL    C43  632   4.775   4.775   6.189  1.7527 -0.1975  0.6247
    1MOL     F7  633   4.648   4.753   6.228 -0.3631  0.1431 -0.1723
    1MOL     F8  634   4.816   4.663   6.133  0.1577  0.6079 -0.1215
    1MOL     F9  635   4.757   4.870   6.096 -0.4829  0.2700  0.3464
    1MOL    C44  636   5.260   5.248   7.100  0.1778 -0.1092 -0.5153
    1MOL    C45  637   5.359   5.185   7.037  0.9155 -0.7002 -1.4733
    1MOL    C46  638   5.507   5.208   7.051  0.2427 -0.0138 -0.7275
    1MOL    F10  639   5.562   5.252   6.933 -0.3867  0.0312 -0.2607
    1MOL    F11  640   5.529   5.299   7.147  0.4875 -0.0118 -0.2796
    1MOL     H4  641   5.271   5.321   7.176 -2.9393  1.2594  1.0364
    1MOL     H5  642   4.911   5.069   7.011  1.1656  0.0810 -0.5309
    1MOL     H6  643   4.706   5.194   6.962  0.4781 -1.2502 -0.2431
    1MOL     H7  644   5.094   5.444   7.142 -2.3058 -0.9387 -1.9072
    1MOL     H8  645   4.898   5.576   7.050  0.0802 -0.0249 -1.7658
    1MOL     H9  646   4.424   5.749   6.839 -0.4282  0.5201 -0.2708
    1MOL    H10  647   4.406   5.577   6.438  2.2909  1.2644 -1.8448
    1MOL    H11  648   4.583   5.402   6.509 -1.0650  1.9290 -0.0480
    1MOL    H12  649   4.562   5.849   6.539  1.2340 -1.7274 -1.6273
    1MOL    H13  650   4.159   5.907   6.388  0.1923 -2.6732 -1.7915
    1MOL    H14  651   4.634   5.986   6.341  2.2126 -1.3771  1.1550
    1MOL     O4  652   4.116   6.089   6.163 -0.3938 -0.0914 -0.5456
    1MOL    H15  653   4.968   5.226   6.811 -0.1168  0.2667  0.0854
    1MOL    H16  654   4.849   5.126   6.623  0.3471  1.0185  1.3252
    1MOL    H17  655   5.167   4.852   6.893  0.9787  0.6572 -0.9793
    1MOL    H18  656   5.074   5.404   6.459  0.1131  1.9134  0.6217
    1MOL    H19  657   4.942   5.179   6.365 -1.0931  1.1264 -1.9177
    1MOL    H20  658   5.392   5.162   6.582  0.2180 -0.0052  2.0184
    1MOL    H21  659   5.273   4.949   6.510 -2.8381 -2.4737  1.1302
    1MOL    H22  660   5.030   4.917   6.181  0.7665 -0.9025 -0.3635
    1MOL    H23  661   5.044   4.744   6.703  0.6506  1.5633  1.5552
    1MOL    F12  662   5.568   5.093   7.080 -0.6756 -0.2494 -0.0830
    1MOL    C47  663   5.386   5.055   6.823  0.3677 -0.1820 -0.8486
    1MOL    H24  664   5.467   4.984   6.845  0.5944  1.6333 -0.3926
    1MOL    H25  665   5.430   5.141   6.774 -1.2925  0.0423  1.3683
    1MOL    H26  666   5.324   4.994   6.756  0.4551  0.1171  1.1835
    1MOL     N1  667   4.756   6.380   6.158  0.3172 -0.3715 -0.0777
    1MOL     N2  668   4.913   6.308   6.010  0.0883  0.0305 -0.1195
    1MOL     C1  669   4.802   6.393   6.025  0.1067 -0.1374  0.3374
    1MOL     C2  670   4.999   6.305   5.899 -0.1372 -0.0331  0.3933
    1MOL     C3  671   5.118   6.228   5.911  0.0507  0.0130  0.1327
    1MOL     C4  672   5.202   6.194   5.804 -0.3845  0.4503 -0.3613
    1MOL     C5  673   5.161   6.238   5.674 -0.2553  0.5147 -0.0319
    1MOL     C6  674   5.050   6.322   5.661 -0.2937 -0.2536 -0.6169
    1MOL     C7  675   4.970   6.351   5.770 -0.1751 -0.3351 -0.0318
    1MOL     N3  676   5.215   6.176   5.559 -0.0058  0.2957  0.5682
    1MOL     C8  677   5.273   6.248   5.453 -0.5644 -0.2468  0.0373
    1MOL     C9  678   5.315   6.142   5.353  0.5455 -0.7214  0.1115
    1MOL    C10  679   5.267   6.015   5.394  0.2984  0.0370 -0.6913
    1MOL    C11  680   5.204   6.039   5.530  0.5548  0.6073 -0.2950
    1MOL     O1  681   5.155   5.954   5.607  0.0718 -0.7838 -0.5925
    1MOL    C12  682   5.384   6.147   5.236 -0.0355 -0.2130  0.3275
    1MOL    C13  683   5.409   6.029   5.155  0.1129  0.5743 -0.7100
    1MOL    C14  684   5.348   5.902   5.194  0.3124 -0.0739 -0.1216
    1MOL    C15  685   5.269   5.901   5.312 -0.7103  0.3767 -0.0725
    1MOL    C16  686   5.460   6.144   4.948 -0.6187  0.0299  0.4703
    1MOL    C17  687   5.541   6.247   4.896 -0.2960 -0.4257 -0.1314
    1MOL    C18  688   5.480   6.348   4.823 -0.0299  0.3823 -0.3995
    1MOL    C19  689   5.325   6.132   4.915  0.5696  0.6661 -0.3234
    1MOL    C20  690   5.348   6.337   4.780  0.1400  0.2302 -0.1009
    1MOL    C21  691   5.272   6.223   4.816  0.1407 -0.5267  0.2908
    1MOL    C22  692   5.518   6.037   5.045  0.2272 -0.2624  0.6465
    1MOL    C23  693   5.659   6.074   5.101 -0.4021 -0.2358  0.1865
    1MOL     F1  694   5.698   5.993   5.204  0.3935 -0.0350  0.1669
    1MOL     F2  695   5.668   6.204   5.149 -0.0311  0.0764 -0.1595
    1MOL     F3  696   5.759   6.067   5.013 -0.3371 -0.2689 -0.2878
    1MOL    C24  697   5.541   5.905   4.959  0.0655  0.4848  0.3609
    1MOL     F4  698   5.621   5.926   4.850 -0.0770  0.1302  0.1144
    1MOL     F5  699   5.424   5.850   4.913 -0.3704 -0.9765 -0.1558
    1MOL     F6  700   5.604   5.812   5.034 -0.1834 -0.1453 -0.0816
    1MOL     O2  701   5.303   6.370   5.447 -0.1029  0.2121 -0.2078
    1MOL    C25  702   5.530   6.467   4.762  0.2334 -0.2104  0.0504
    1MOL     N4  703   5.429   6.530   4.693  0.4462  0.1655  0.1398
    1MOL    C26  704   5.316   6.455   4.693  1.0675  0.1633 -0.3237
    1MOL     O3  705   5.223   6.466   4.612  0.2178 -0.0325  0.7635
    1MOL    C27  706   4.714   6.435   5.930 -0.4277 -0.0519 -0.5907
    1MOL    C28  707   4.647   6.336   5.863  0.3415 -0.0080  0.3671
    1MOL    C29  708   4.696   6.570   5.901 -0.1467 -0.5086  1.1202
    1MOL    C30  709   4.568   6.371   5.751 -0.4759 -0.1920  0.5344
    1MOL    C31  710   4.615   6.609   5.792 -0.0679  0.9469  0.4224
    1MOL    C32  711   4.544   6.503   5.723 -0.6267  0.0936 -0.2263
    1MOL    C33  712   4.429   6.538   5.656  0.1738  0.9084 -0.2688
    1MOL     N5  713   4.303   6.484   5.691 -0.0740  0.6174 -0.2063
    1MOL     N6  714   4.407   6.639   5.555 -0.2944 -0.4409 -0.2257
    1MOL    C34  715   4.214   6.531   5.602 -0.5503  0.2704 -0.0621
    1MOL    C35  716   4.274   6.620   5.526 -0.2476 -0.8069 -0.7599
    1MOL    C36  717   4.508   6.662   5.452  0.1131  0.1193 -0.5865
    1MOL     H1  718   4.468   6.726   5.372 -0.8425 -0.2827 -2.6477
    1MOL     H2  719   4.521   6.558   5.413  3.2819  1.2513 -2.0073
    1MOL     H3  720   4.605   6.702   5.490 -0.4734 -1.9172  0.0658
    1MOL    C37  721   4.286   6.397   5.798  0.5287  0.8312  0.0225
    1MOL    C38  722   4.251   6.263   5.770  0.5327  0.5512  0.3718
    1MOL    C39  723   4.267   6.166   5.866 -0.4416  0.0345 -0.1756
    1MOL    C40  724   4.311   6.205   5.991  0.3384 -0.3617  0.0019
    1MOL    C41  725   4.331   6.341   6.022 -0.1159 -0.9170  0.7300
    1MOL    C42  726   4.322   6.440   5.926  0.0817 -0.5690 -0.4882
    1MOL    C43  727   4.207   6.705   5.424  0.3835 -0.4761  0.1891
    1MOL     F7  728   4.273   6.721   5.308  0.2307 -0.4911  0.1604
    1MOL     F8  729   4.170   6.821   5.491  0.2563  0.1089  0.4256
    1MOL     F9  730   4.083   6.657   5.402 -0.0762 -0.2869  0.1931
    1MOL    C44  731   4.916   6.237   6.129  0.4292  0.8386 -0.4637
    1MOL    C45  732   4.827   6.279   6.218 -0.8975 -0.0254  0.8206
    1MOL    C46  733   4.811   6.228   6.359 -0.7026  0.0641  0.0666
    1MOL    F10  734   4.888   6.310   6.434 -0.1283  0.2874 -0.1293
    1MOL    F11  735   4.688   6.225   6.400  0.1609  0.4628  0.3329
    1MOL     H4  736   4.990   6.166   6.152  2.9741 -1.0266  1.5120
    1MOL     H5  737   5.146   6.197   6.003 -2.0953  0.1620 -1.0114
    1MOL     H6  738   5.292   6.139   5.818 -0.7546  0.6995 -3.3532
    1MOL     H7  739   4.878   6.404   5.748 -2.6787 -0.6446  3.6560
    1MOL     H8  740   5.022   6.353   5.560 -0.6875 -0.1006 -0.0630
    1MOL     H9  741   5.417   6.246   5.205 -2.0714 -1.0230  1.4431
    1MOL    H10  742   5.341   5.820   5.122  2.4059 -0.6725  1.2532
    1MOL    H11  743   5.213   5.809   5.327 -0.5164 -2.3752 -0.3524
    1MOL    H12  744   5.266   6.050   4.944  1.7289  1.2302 -1.7733
    1MOL    H13  745   5.650   6.260   4.918 -0.4770  0.2234 -0.1398
    1MOL    H14  746   5.174   6.224   4.782  2.1428 -0.6283 -0.8467
    1MOL     O4  747   5.642   6.503   4.773 -0.2164  0.2322 -0.3436
    1MOL    H15  748   4.656   6.229   5.891 -0.4242 -1.6413  0.7146
    1MOL    H16  749   4.513   6.292   5.699  0.6982  0.0032 -0.6713
    1MOL    H17  750   4.751   6.642   5.949  1.3743 -1.7513 -0.5916
    1MOL    H18  751   4.243   6.065   5.845  0.3356  1.6514  4.1640
    1MOL    H19  752   4.218   6.225   5.675  0.1533 -0.0413  0.7590
    1MOL    H20  753   4.360   6.365   6.122 -0.2030 -3.1899 -1.0938
    1MOL    H21  754   4.357   6.541   5.945  0.9317  0.6551 -1.5552
    1MOL    H22  755   4.116   6.490   5.592  0.1118  0.0190  0.0118
    1MOL    H23  756   4.587   6.711   5.759  1.0818 -0.9667 -1.6442
    1MOL    F12  757   4.858   6.096   6.370  0.3164  0.2256 -0.0684
    1MOL    C47  758   4.662   6.472   6.227 -0.5169  0.9509 -0.2078
    1MOL    H24  759   4.633   6.558   6.169  0.1440  1.8011  1.7107
    1MOL    H25  760   4.693   6.508   6.323  3.1209  0.5091 -1.2376
    1MOL    H26  761   4.573   6.403   6.250  0.7516 -1.0484  0.2444
    1MOL     N1  762   5.445   6.230   4.278 -0.0503  0.0733  0.2523
    1MOL     N2  763   5.223   6.235   4.210  0.6787 -0.9663  0.3023
    1MOL     C1  764   5.338   6.316   4.229  0.8417  0.3399 -0.6664
    1MOL     C2  765   5.089   6.280   4.210 -0.8860 -0.6085 -0.2126
    1MOL     C3  766   5.030   6.315   4.333  0.0112 -0.5617  0.9364
    1MOL     C4  767   4.913   6.395   4.336  0.2929 -0.5867  0.4786
    1MOL     C5  768   4.858   6.428   4.209 -0.8016  1.0022  1.1840
    1MOL     C6  769   4.907   6.374   4.086  0.0755 -0.2168 -0.2608
    1MOL     C7  770   5.024   6.301   4.089  0.1730  0.0894  1.2040
    1MOL     N3  771   4.755   6.519   4.206  0.4408 -0.5391  0.1756
    1MOL     C8  772   4.634   6.494   4.148  0.4961  0.0419 -0.1314
    1MOL     C9  773   4.559   6.624   4.144  0.2591  0.0470 -0.1738
    1MOL    C10  774   4.647   6.717   4.189  0.0199  0.1723 -0.4106
    1MOL    C11  775   4.780   6.654   4.222 -0.2719  0.3279 -0.4332
    1MOL     O1  776   4.883   6.706   4.267 -0.2097  0.1022 -0.0254
    1MOL    C12  777   4.429   6.659   4.114 -0.4769  0.2432  0.5264
    1MOL    C13  778   4.386   6.792   4.120 -0.2150 -0.4916  0.7320
    1MOL    C14  779   4.484   6.891   4.153  0.4872  0.0996 -0.1759
    1MOL    C15  780   4.612   6.853   4.194 -0.3654 -0.9510 -0.2469
    1MOL    C16  781   4.193   6.863   4.245 -0.0053  0.2064  0.0279
    1MOL    C17  782   4.172   6.991   4.302 -0.6360 -0.6111 -0.6616
    1MOL    C18  783   4.156   7.012   4.440 -0.6971 -0.2848  0.0674
    1MOL    C19  784   4.193   6.748   4.334  0.2848 -0.7661  0.7052
    1MOL    C20  785   4.153   6.900   4.520  0.3378  0.9682  0.0615
    1MOL    C21  786   4.164   6.767   4.471 -0.0612 -0.5609 -0.7988
    1MOL    C22  787   4.240   6.836   4.096  0.4747 -0.0901  0.5211
    1MOL    C23  788   4.219   6.965   4.001  0.0263 -0.4219  0.6231
    1MOL     F1  789   4.091   7.009   3.993 -0.2628  1.1064  0.4973
    1MOL     F2  790   4.258   6.941   3.870 -0.0263  0.0639  0.0940
    1MOL     F3  791   4.291   7.071   4.034  0.1978  0.5520 -0.4683
    1MOL    C24  792   4.155   6.724   4.017 -0.1165  0.3533  0.1919
    1MOL     F4  793   4.220   6.680   3.900  0.0843 -0.3298  0.1644
    1MOL     F5  794   4.025   6.759   3.985  0.3872  0.4945 -0.9298
    1MOL     F6  795   4.140   6.614   4.088 -0.6984 -0.1376 -0.8135
    1MOL     O2  796   4.593   6.386   4.103 -1.0063  0.2260  0.7227
    1MOL    C25  797   4.157   7.126   4.536 -0.3263  0.2317 -0.4291
    1MOL     N4  798   4.145   7.072   4.667 -0.1183  0.5791 -0.5230
    1MOL    C26  799   4.146   6.937   4.665 -0.0461  0.5449  0.0761
    1MOL     O3  800   4.162   6.870   4.764 -0.2847 -0.7057 -0.2082
    1MOL    C27  801   5.334   6.454   4.239  0.3035 -0.4099  0.1878
    1MOL    C28  802   5.246   6.520   4.325  0.3163  0.5169  0.4318
    1MOL    C29  803   5.409   6.534   4.145  0.4349  0.0339  0.4858
    1MOL    C30  804   5.237   6.653   4.319 -0.6106  0.5262  0.3780
    1MOL    C31  805   5.394   6.675   4.137  0.6126  0.1940  0.4798
    1MOL    C32  806   5.305   6.731   4.226  0.0966 -0.1879 -0.5719
    1MOL    C33  807   5.308   6.867   4.246  0.6319 -0.6362 -0.6631
    1MOL     N5  808   5.389   6.938   4.342  0.1236 -0.2473 -0.0701
    1MOL     N6  809   5.202   6.955   4.210  0.4829  0.7745 -0.6735
    1MOL    C34  810   5.331   7.064   4.353  0.0180  0.3567  0.2710
    1MOL    C35  811   5.220   7.070   4.284 -0.5305 -0.1160 -1.0869
    1MOL    C36  812   5.087   6.921   4.129  0.5645 -0.5517  0.0913
    1MOL     H1  813   5.004   6.900   4.198  0.6107 -2.9484 -0.9113
    1MOL     H2  814   5.106   6.836   4.069 -0.0827  1.4257  1.7295
    1MOL     H3  815   5.051   7.009   4.073 -0.9312  1.5150  3.3993
    1MOL    C37  816   5.439   6.856   4.446  0.3091 -0.4712 -0.0942
    1MOL    C38  817   5.541   6.762   4.431 -0.0710  0.3225 -0.1203
    1MOL    C39  818   5.546   6.655   4.518 -0.1119 -0.8581 -0.2124
    1MOL    C40  819   5.454   6.647   4.623  0.2849  0.1108 -0.2349
    1MOL    C41  820   5.369   6.750   4.654 -0.0385 -0.9310 -0.6371
    1MOL    C42  821   5.366   6.861   4.564  0.0299  0.1119 -0.2753
    1MOL    C43  822   5.122   7.185   4.276  0.2116  0.4638 -0.1746
    1MOL     F7  823   5.002   7.147   4.320 -0.3915 -0.0867  0.4666
    1MOL     F8  824   5.101   7.224   4.147  0.0431  0.3847  0.0005
    1MOL     F9  825   5.173   7.288   4.345  0.5675 -0.1268 -0.1704
    1MOL    C44  826   5.267   6.106   4.236  0.1773 -0.0707  0.5927
    1MOL    C45  827   5.394   6.098   4.274 -0.0005 -0.1432  0.1871
    1MOL    C46  828   5.475   5.971   4.292  0.3763 -0.9277 -0.0430
    1MOL    F10  829   5.401   5.865   4.238 -0.3788 -0.4819  0.3673
    1MOL    F11  830   5.595   5.975   4.235  0.2861 -0.5179 -0.2858
    1MOL     H4  831   5.201   6.022   4.215 -0.9505 -1.7542  2.2826
    1MOL     H5  832   5.081   6.310   4.430 -0.5061 -0.5292 -0.2742
    1MOL     H6  833   4.878   6.431   4.427 -1.2644  0.1852  1.3109
    1MOL     H7  834   5.078   6.273   3.997 -2.3739 -0.9970 -3.2237
    1MOL     H8  835   4.863   6.398   3.992 -2.1853  0.5371 -1.1713
    1MOL     H9  836   4.369   6.572   4.089  2.4183  1.2424  1.3342
    1MOL    H10  837   4.456   6.997   4.164 -0.1835 -1.6146 -1.5006
    1MOL    H11  838   4.680   6.922   4.245 -0.1692  0.2877 -0.0163
    1MOL    H12  839   4.222   6.654   4.304 -2.0751 -0.3448  0.9859
    1MOL    H13  840   4.175   7.080   4.239 -0.5426  0.0267  3.5372
    1MOL    H14  841   4.170   6.677   4.535  1.5138 -0.8208 -0.2032
    1MOL     O4  842   4.153   7.247   4.518 -0.2696 -0.3917  0.7121
    1MOL    H15  843   5.194   6.478   4.403 -0.5358 -0.7107  2.2308
    1MOL    H16  844   5.160   6.689   4.386 -0.4596  2.9133 -0.1838
    1MOL    H17  845   5.472   6.477   4.079 -3.0069 -3.1788  2.5261
    1MOL    H18  846   5.607   6.570   4.499 -0.9672  0.2670 -1.5979
    1MOL    H19  847   5.608   6.760   4.347  0.5539  0.6710  1.9390
    1MOL    H20  848   5.289   6.740   4.732 -0.9740 -2.0388  0.7617
    1MOL    H21  849   5.286   6.935   4.585  0.5845 -2.3853  1.0707
    1MOL    H22  850   5.366   7.139   4.426  0.9312 -0.8221  1.2025
    1MOL    H23  851   5.459   6.734   4.064  1.7722 -2.2903 -0.4185
    1MOL    F12  852   5.496   5.944   4.420  0.2234  0.4270  0.4812
    1MOL    C47  853   5.566   6.285   4.339  1.2158  0.1817  0.2531
    1MOL    H24  854   5.643   6.311   4.263 -0.3699  1.5623 -0.8254
    1MOL    H25  855   5.613   6.228   4.417  2.0967  0.2668 -2.5079
    1MOL    H26  856   5.523   6.387   4.378  1.0513  1.6431 -0.4734
    1MOL     N1  857   3.884   6.729   4.927  0.1739 -1.0242  0.0747
    1MOL     N2  858   4.046   6.569   4.953 -0.1664  0.4253  0.5378
    1MOL     C1  859   4.003   6.697   4.999  0.0300  0.0619  0.0828
    1MOL     C2  860   4.147   6.487   5.009  0.6017  0.1770 -0.0401
    1MOL     C3  861   4.285   6.504   4.991 -0.1945 -0.1363 -0.5568
    1MOL     C4  862   4.376   6.422   5.060 -0.4533 -0.8678  0.3707
    1MOL     C5  863   4.323   6.331   5.152  0.4313 -0.3064  0.0414
    1MOL     C6  864   4.187   6.312   5.169 -0.0489 -0.0666  0.2214
    1MOL     C7  865   4.099   6.381   5.088  0.6749 -0.8092  0.4210
    1MOL     N3  866   4.419   6.254   5.223  1.0236  0.1788 -0.2047
    1MOL     C8  867   4.425   6.238   5.361 -0.2844 -0.2158 -0.4053
    1MOL     C9  868   4.529   6.136   5.385  0.3967 -0.2247  0.6729
    1MOL    C10  869   4.565   6.087   5.262 -0.0231  0.5210  0.0269
    1MOL    C11  870   4.491   6.155   5.157 -0.5093 -0.2085 -0.0955
    1MOL     O1  871   4.493   6.130   5.036 -0.1847 -0.4353 -0.0381
    1MOL    C12  872   4.571   6.083   5.505 -0.3345 -0.0491 -0.0961
    1MOL    C13  873   4.676   5.983   5.496 -0.1001  0.6107  0.0916
    1MOL    C14  874   4.731   5.953   5.368  0.0108 -0.1524 -0.6194
    1MOL    C15  875   4.666   5.993   5.245 -0.3981 -0.7908  0.2691
    1MOL    C16  876   4.628   5.878   5.716 -0.5878  0.3425 -0.9715
    1MOL    C17  877   4.496   5.852   5.676  0.0390  0.8626  0.2794
    1MOL    C18  878   4.393   5.830   5.769  0.0086  0.3860  0.2153
    1MOL    C19  879   4.646   5.869   5.858 -0.4542  0.2325  0.1131
    1MOL    C20  880   4.415   5.820   5.904  0.2301 -0.4601  0.5180
    1MOL    C21  881   4.544   5.844   5.948 -0.0614  0.2412  0.1451
    1MOL    C22  882   4.743   5.915   5.623  0.5807 -0.0220 -0.7124
    1MOL    C23  883   4.827   5.779   5.594 -0.0556 -0.9568  0.2644
    1MOL     F1  884   4.846   5.722   5.716 -0.0387  0.3505  0.3904
    1MOL     F2  885   4.947   5.804   5.531  0.1888 -0.2008 -0.0139
    1MOL     F3  886   4.755   5.694   5.527  0.1621  0.5909  0.2606
    1MOL    C24  887   4.838   6.021   5.684 -0.5449  0.6504 -0.7623
    1MOL     F4  888   4.763   6.119   5.747 -0.5551 -0.1961  0.1914
    1MOL     F5  889   4.900   6.083   5.584  0.5540 -0.1422 -0.0577
    1MOL     F6  890   4.926   5.964   5.766 -0.7515 -0.0130 -0.0120
    1MOL     O2  891   4.360   6.294   5.443  0.1979  0.6295 -0.9747
    1MOL    C25  892   4.249   5.804   5.751 -0.3265  0.1963 -0.8171
    1MOL     N4  893   4.196   5.778   5.876  0.7728  0.1341 -0.6776
    1MOL    C26  894   4.287   5.787   5.977 -0.5269  0.4429 -0.0133
    1MOL     O3  895   4.273   5.760   6.097 -0.1047  0.0432  0.1233
    1MOL    C27  896   4.084   6.789   5.071  0.0831 -0.3575  0.4249
    1MOL    C28  897   4.214   6.818   5.039 -0.1310  0.5820 -0.0678
    1MOL    C29  898   4.030   6.864   5.180  0.0319 -0.5042 -0.1980
    1MOL    C30  899   4.290   6.911   5.106 -0.2686  0.6593 -0.4568
    1MOL    C31  900   4.098   6.965   5.242  0.5875  0.4373  1.2906
    1MOL    C32  901   4.231   6.987   5.213 -0.1319 -0.7712 -0.2100
    1MOL    C33  902   4.291   7.102   5.253  0.8639  0.0558  0.0227
    1MOL     N5  903   4.284   7.224   5.180 -0.3211  0.4695 -0.3434
    1MOL     N6  904   4.381   7.119   5.351  0.3081  0.1987  0.0270
    1MOL    C34  905   4.357   7.317   5.257  0.1197  0.1551  0.1088
    1MOL    C35  906   4.409   7.261   5.363 -0.0783  0.1780  0.3560
    1MOL    C36  907   4.471   7.013   5.405 -0.7056 -0.3778 -0.6047
    1MOL     H1  908   4.569   7.056   5.434  0.2389 -0.1619  1.6675
    1MOL     H2  909   4.483   6.942   5.320  2.9889  2.2979  1.9428
    1MOL     H3  910   4.432   6.947   5.494 -2.7311  2.1521  2.0069
    1MOL    C37  911   4.238   7.224   5.050  0.3981 -0.4987  0.5491
    1MOL    C38  912   4.103   7.198   5.024  0.1669  0.1546  0.4568
    1MOL    C39  913   4.070   7.146   4.898 -1.0816 -0.8414 -0.3741
    1MOL    C40  914   4.169   7.140   4.798 -1.0296  0.5384  0.1992
    1MOL    C41  915   4.303   7.187   4.826 -0.0895  0.2065  0.6520
    1MOL    C42  916   4.338   7.221   4.957  0.0214 -0.3452  0.4507
    1MOL    C43  917   4.504   7.322   5.464 -0.2939  0.7827 -0.6610
    1MOL     F7  918   4.626   7.260   5.465 -0.2411  0.2134 -0.5938
    1MOL     F8  919   4.462   7.320   5.593 -0.5699  0.3109  0.2741
    1MOL     F9  920   4.533   7.450   5.433  0.1564 -0.3988 -0.1205
    1MOL    C44  921   3.961   6.537   4.849  0.4168 -0.2040  0.3427
    1MOL    C45  922   3.868   6.628   4.834  0.4023 -0.5143 -0.2652
    1MOL    C46  923   3.752   6.630   4.730 -0.2877  0.2130 -0.0885
    1MOL    F10  924   3.769   6.533   4.639 -0.4789  0.4969 -0.4883
    1MOL    F11  925   3.632   6.602   4.792  0.1486 -0.0147 -0.5025
    1MOL     H4  926   3.982   6.449   4.786 -1.3730  0.2144 -2.1898
    1MOL     H5  927   4.323   6.581   4.924 -0.4642  1.9872 -1.2630
    1MOL     H6  928   4.480   6.429   5.044 -0.8645  0.9758  0.7081
    1MOL     H7  929   3.995   6.356   5.086 -0.2406  1.2731 -2.8434
    1MOL     H8  930   4.146   6.248   5.246 -0.8335 -1.3553  0.6431
    1MOL     H9  931   4.536   6.107   5.599 -0.7243 -3.8605  3.5888
    1MOL    H10  932   4.800   5.881   5.355 -2.0927  1.7226 -1.5597
    1MOL    H11  933   4.696   5.951   5.153  0.6459  1.2000 -1.5731
    1MOL    H12  934   4.739   5.906   5.900 -1.4218  3.0270 -0.0660
    1MOL    H13  935   4.472   5.839   5.567 -2.3343 -0.8886 -0.6577
    1MOL    H14  936   4.564   5.850   6.049 -0.1766  1.4320  0.7081
    1MOL     O4  937   4.189   5.806   5.639  0.0355 -0.0563  0.2402
    1MOL    H15  938   4.254   6.764   4.949 -0.6392 -0.3812 -0.2589
    1MOL    H16  939   4.394   6.933   5.081  1.0830 -0.0705  4.1625
    1MOL    H17  940   3.924   6.851   5.210 -0.8346  0.1801 -0.0584
    1MOL    H18  941   3.969   7.115   4.879 -1.1585  0.2708  0.5970
    1MOL    H19  942   4.024   7.188   5.100  0.6571  0.4290  0.1016
    1MOL    H20  943   4.378   7.185   4.746 -0.6446 -2.8440  0.3558
    1MOL    H21  944   4.442   7.249   4.984 -1.2058  0.3536 -0.6112
    1MOL    H22  945   4.364   7.420   5.225 -3.0671 -2.3194  1.2900
    1MOL    H23  946   4.054   7.015   5.332  2.2853  1.8593  0.2683
    1MOL    F12  947   3.735   6.751   4.671  0.1059  0.0376  0.3458
    1MOL    C47  948   3.842   6.872   4.908  0.2352 -0.4526 -0.1007
    1MOL    H24  949   3.738   6.874   4.862 -0.5186  0.3421 -1.5282
    1MOL    H25  950   3.913   6.917   4.834 -2.6681  1.6113  2.4144
    1MOL    H26  951   3.852   6.934   5.000 -1.0192  1.6217 -0.9594
    1MOL     N1  952   3.912   5.622   5.352  0.9748  0.4656 -0.0152
    1MOL     N2  953   3.818   5.442   5.243 -0.4330  0.1782 -0.3407
    1MOL     C1  954   3.808   5.528   5.358  0.3608  0.5479  0.7948
    1MOL     C2  955   3.721   5.349   5.211  0.0491 -0.3359 -0.3696
    1MOL     C3  956   3.729   5.222   5.274 -0.0041 -0.1588 -0.1187
    1MOL     C4  957   3.630   5.126   5.256  0.4960 -0.2185  0.0467
    1MOL     C5  958   3.528   5.146   5.156 -0.6948 -0.1708  0.1566
    1MOL     C6  959   3.530   5.273   5.084 -0.1415  0.5376 -0.0891
    1MOL     C7  960   3.620   5.376   5.115  0.0342  0.4829 -0.4270
    1MOL     N3  961   3.419   5.068   5.142  0.0363  0.1519  0.1973
    1MOL     C8  962   3.306   5.101   5.220  0.4645  0.3196 -0.5022
    1MOL     C9  963   3.195   5.048   5.137 -0.6617 -0.0343 -0.5293
    1MOL    C10  964   3.240   4.981   5.029 -0.4967 -0.2620  0.5011
    1MOL    C11  965   3.389   4.980   5.038  0.1561  0.3624  0.2658
    1MOL     O1  966   3.473   4.934   4.961 -0.8309 -0.4719 -0.2103
    1MOL    C12  967   3.066   5.096   5.140 -0.0700  0.5983  0.6193
    1MOL    C13  968   2.987   5.085   5.025 -0.1600  0.8448 -0.2383
    1MOL    C14  969   3.037   5.009   4.913  0.2479 -0.1121 -0.0861
    1MOL    C15  970   3.162   4.952   4.915 -0.1758 -0.7408  0.1856
    1MOL    C16  971   2.891   5.308   5.082 -0.1143 -0.6466 -0.3714
    1MOL    C17  972   2.829   5.375   5.195  0.9965  0.1261 -0.1317
    1MOL    C18  973   2.865   5.502   5.240 -0.5067  0.4896 -0.3899
    1MOL    C19  974   2.992   5.382   5.021  0.2317  0.4195  0.1419
    1MOL    C20  975   2.972   5.565   5.181 -0.0177  0.3829  0.0515
    1MOL    C21  976   3.036   5.506   5.073  0.0307  0.0798  0.5862
    1MOL    C22  977   2.851   5.163   5.031  0.0746  0.1569  0.0966
    1MOL    C23  978   2.782   5.180   4.890 -0.3089  0.7061 -0.3483
    1MOL     F1  979   2.732   5.061   4.841  0.0984 -0.0018 -0.3305
    1MOL     F2  980   2.862   5.229   4.791 -0.1844  0.6967  0.1774
    1MOL     F3  981   2.674   5.263   4.886  0.5324  0.1462 -0.0840
    1MOL    C24  982   2.757   5.089   5.127 -0.1317 -0.0531 -0.1120
    1MOL     F4  983   2.791   5.083   5.255  1.2217 -0.4075  0.5253
    1MOL     F5  984   2.752   4.962   5.089 -0.1642 -0.5745 -0.2041
    1MOL     F6  985   2.627   5.130   5.126  0.3052 -0.2962 -0.9330
    1MOL     O2  986   3.294   5.165   5.327 -0.2893 -0.2282  0.1869
    1MOL    C25  987   2.810   5.602   5.346  0.3075 -0.8275 -0.0278
    1MOL     N4  988   2.898   5.705   5.347  0.4313  0.6154 -0.4655
    1MOL    C26  989   2.995   5.693   5.254 -0.3267 -0.1604  0.1974
    1MOL     O3  990   3.087   5.774   5.240 -0.4049  0.3292  0.2711
    1MOL    C27  991   3.717   5.527   5.463  0.2744  0.0470 -0.1267
    1MOL    C28  992   3.681   5.416   5.540  0.1058 -0.0406  0.2170
    1MOL    C29  993   3.666   5.653   5.507  0.4187 -0.4153 -0.4316
    1MOL    C30  994   3.610   5.426   5.657  0.1001 -0.1238 -0.2795
    1MOL    C31  995   3.605   5.663   5.633 -0.0322 -0.4828  0.2991
    1MOL    C32  996   3.591   5.548   5.714  0.1290  0.4039 -1.0517
    1MOL    C33  997   3.565   5.550   5.849 -0.4689 -0.0420  0.0513
    1MOL     N5  998   3.659   5.593   5.940 -0.2354  0.1506 -0.3319
    1MOL     N6  999   3.458   5.493   5.916 -0.1650 -0.9442 -0.1837
    1MOL    C34 1000   3.602   5.564   6.070 -0.2381  0.2134  0.3287
    1MOL    C35 1001   3.481   5.518   6.051 -0.1238  0.5510  0.0621
    1MOL    C36 1002   3.385   5.375   5.871 -0.0635 -1.0266 -0.0672
    1MOL     H1 1003   3.439   5.281   5.904 -0.5786 -1.9384  0.8192
    1MOL     H2 1004   3.361   5.385   5.761 -3.7894  0.7374  1.2324
    1MOL     H3 1005   3.282   5.372   5.914 -2.2939 -1.6666 -0.3998
    1MOL    C37 1006   3.787   5.649   5.911  0.3308  0.4303  0.8053
    1MOL    C38 1007   3.872   5.593   5.809  0.2704 -0.4131 -0.7589
    1MOL    C39 1008   4.007   5.632   5.809  0.4631 -0.7234 -0.3748
    1MOL    C40 1009   4.060   5.730   5.894 -0.4853 -0.6670 -0.3136
    1MOL    C41 1010   3.979   5.783   5.993 -0.4880  0.7147 -0.8914
    1MOL    C42 1011   3.842   5.740   6.007 -0.5763 -0.3763  0.2562
    1MOL    C43 1012   3.384   5.481   6.163  0.2480  1.3243  0.2795
    1MOL     F7 1013   3.257   5.523   6.143  0.6246 -0.2203  0.0135
    1MOL     F8 1014   3.437   5.532   6.280  0.3230  0.5515  0.3577
    1MOL     F9 1015   3.372   5.346   6.178 -0.4492 -0.0356  0.0040
    1MOL    C44 1016   3.927   5.491   5.168 -0.0960  0.5948 -0.2804
    1MOL    C45 1017   3.975   5.601   5.223 -0.5231  0.0725 -0.3616
    1MOL    C46 1018   4.072   5.707   5.164 -0.6668  0.0338  0.3887
    1MOL    F10 1019   4.081   5.663   5.031  0.5803 -0.1819  0.2533
    1MOL    F11 1020   4.022   5.826   5.168 -0.3039 -0.0864  0.0709
    1MOL     H4 1021   3.944   5.446   5.068 -2.6643  1.7499 -1.4351
    1MOL     H5 1022   3.812   5.217   5.339  3.2139 -1.1486  0.3146
    1MOL     H6 1023   3.622   5.034   5.312  0.7228  1.9643 -2.8020
    1MOL     H7 1024   3.608   5.473   5.063 -1.5362  1.0774 -1.2235
    1MOL     H8 1025   3.446   5.291   5.018 -0.7596 -0.6885 -0.1813
    1MOL     H9 1026   3.051   5.165   5.222  4.1316 -0.4459 -0.0134
    1MOL    H10 1027   2.982   4.992   4.823 -0.7400 -2.0370  1.0427
    1MOL    H11 1028   3.200   4.903   4.830 -1.6077 -0.3499 -1.8272
    1MOL    H12 1029   3.033   5.336   4.936 -0.4384 -3.0078  2.0225
    1MOL    H13 1030   2.741   5.328   5.242  0.1182 -1.4278  2.9424
    1MOL    H14 1031   3.116   5.553   5.023  1.3842  0.5299  2.6231
    1MOL     O4 1032   2.718   5.588   5.424 -0.0790  0.0529 -0.3332
    1MOL    H15 1033   3.729   5.325   5.512  1.3628 -3.4732  1.1397
    1MOL    H16 1034   3.597   5.335   5.713 -0.7365  1.1082  0.6662
    1MOL    H17 1035   3.667   5.742   5.452 -2.3688 -0.4409  0.5817
    1MOL    H18 1036   4.071   5.577   5.741 -0.2478 -1.3001 -0.3344
    1MOL    H19 1037   3.836   5.524   5.732  1.9178  2.4834 -1.5376
    1MOL    H20 1038   4.014   5.863   6.057  0.1170  0.9297 -1.7906
    1MOL    H21 1039   3.779   5.776   6.094 -0.4178 -0.3125  2.9099
    1MOL    H22 1040   3.653   5.598   6.159  1.5960  1.8637  0.4570
    1MOL    H23 1041   3.577   5.748   5.676  0.1868 -1.1404  0.1989
    1MOL    F12 1042   4.199   5.700   5.214 -0.0315  0.0902 -0.3944
    1MOL    C47 1043   4.005   5.645   5.465 -0.3068 -0.0684 -0.3233
    1MOL    H24 1044   4.111   5.663   5.435 -1.9563  0.4961 -2.5155
    1MOL    H25 1045   4.006   5.563   5.532  0.0274  1.2635 -1.9475
    1MOL    H26 1046   3.972   5.736   5.517  1.1129 -0.7747 -0.3854
    1MOL     N1 1047   3.362   5.717   5.409  0.8281  0.0271  0.3888
    1MOL     N2 1048   3.479   5.810   5.232 -0.0338  0.5945 -0.2213
    1MOL     C1 1049   3.419   5.839   5.358  0.4135 -0.0931  0.2753
    1MOL     C2 1050   3.511   5.898   5.126  0.5163 -0.1984 -0.2523
    1MOL     C3 1051   3.415   5.987   5.072  0.0346 -0.4353 -0.1784
    1MOL     C4 1052   3.443   6.055   4.952  0.4011  0.8961 -0.0576
    1MOL     C5 1053   3.565   6.042   4.892  0.4284 -1.0455 -0.0452
    1MOL     C6 1054   3.663   5.958   4.946 -0.4058  0.1508  0.8571
    1MOL     C7 1055   3.636   5.881   5.065 -0.0142 -0.0469  0.5795
    1MOL     N3 1056   3.589   6.093   4.766  0.5490  0.5370  0.6175
    1MOL     C8 1057   3.694   6.167   4.733 -0.0444 -1.1151 -1.1007
    1MOL     C9 1058   3.683   6.186   4.584 -0.5994 -0.0958  0.2482
    1MOL    C10 1059   3.573   6.117   4.534  0.5295  0.6727 -0.3747
    1MOL    C11 1060   3.506   6.062   4.654  0.3315  0.2576 -0.4712
    1MOL     O1 1061   3.403   5.997   4.663  0.5389  0.0661 -0.2565
    1MOL    C12 1062   3.765   6.258   4.503  0.0984 -0.2897 -0.4944
    1MOL    C13 1063   3.733   6.269   4.365  0.3115 -0.3285 -0.0455
    1MOL    C14 1064   3.619   6.204   4.306  0.3914 -0.1758 -0.5606
    1MOL    C15 1065   3.539   6.124   4.396  0.5409  0.2347  0.6285
    1MOL    C16 1066   3.773   6.509   4.319 -0.4984  0.6117  0.0263
    1MOL    C17 1067   3.644   6.538   4.365 -0.5813 -0.1962  0.6649
    1MOL    C18 1068   3.608   6.664   4.405 -0.4675 -0.0589  0.2165
    1MOL    C19 1069   3.858   6.624   4.314 -0.4804 -0.0889 -0.2210
    1MOL    C20 1070   3.694   6.774   4.394 -0.4471  0.4393  0.0995
    1MOL    C21 1071   3.825   6.752   4.356  0.6996  1.1447 -0.1496
    1MOL    C22 1072   3.821   6.365   4.284  0.1440  0.1024 -0.7037
    1MOL    C23 1073   3.972   6.331   4.320  0.8273  0.0091  0.3369
    1MOL     F1 1074   3.990   6.199   4.344 -0.2332  0.0512  0.0824
    1MOL     F2 1075   4.017   6.400   4.430 -0.1384 -0.0087  0.0030
    1MOL     F3 1076   4.060   6.358   4.221 -0.2455  0.1333  0.4375
    1MOL    C24 1077   3.797   6.359   4.128 -0.2986  0.1011  0.5319
    1MOL     F4 1078   3.881   6.441   4.062 -0.5203  0.0035 -0.0964
    1MOL     F5 1079   3.674   6.408   4.095  0.2905 -0.3975  0.1959
    1MOL     F6 1080   3.806   6.233   4.070  0.4176 -0.6037  0.2289
    1MOL     O2 1081   3.774   6.219   4.810 -0.2134 -0.1368 -0.3011
    1MOL    C25 1082   3.473   6.721   4.446  0.0642 -0.4817 -0.0141
    1MOL     N4 1083   3.487   6.856   4.447 -1.1883  0.0793 -0.0740
    1MOL    C26 1084   3.616   6.899   4.421 -0.4866  0.2267  1.0045
    1MOL     O3 1085   3.666   7.012   4.414  0.3803 -0.5803 -0.0178
    1MOL    C27 1086   3.369   5.962   5.411 -0.0926  0.2377  0.0256
    1MOL    C28 1087   3.248   6.008   5.358 -0.0936  0.6736 -0.7087
    1MOL    C29 1088   3.409   6.024   5.537 -0.1286  0.0126 -0.8604
    1MOL    C30 1089   3.176   6.114   5.399 -0.2677  1.0626 -0.6095
    1MOL    C31 1090   3.323   6.120   5.599 -0.3394  1.1913 -0.5729
    1MOL    C32 1091   3.206   6.158   5.531  0.2214 -0.4987  0.0423
    1MOL    C33 1092   3.106   6.222   5.609  0.1591  0.4417  0.4341
    1MOL     N5 1093   2.992   6.153   5.663  0.2262 -0.0506  0.0977
    1MOL     N6 1094   3.097   6.357   5.650  0.6010 -0.9348 -0.1128
    1MOL    C34 1095   2.923   6.255   5.728  0.2071 -0.5772 -0.3061
    1MOL    C35 1096   2.980   6.369   5.724 -0.2700 -0.4145 -0.0778
    1MOL    C36 1097   3.161   6.467   5.564  0.0178 -0.0673 -0.0905
    1MOL     H1 1098   3.173   6.563   5.626  3.6424 -1.6672  1.0100
    1MOL     H2 1099   3.120   6.483   5.465 -0.9759  0.4332  0.6020
    1MOL     H3 1100   3.256   6.430   5.527  2.5994 -0.5189 -0.4757
    1MOL    C37 1101   2.937   6.040   5.608 -0.3354  0.2277  0.0064
    1MOL    C38 1102   2.990   5.914   5.646 -0.5296  0.1941  0.1552
    1MOL    C39 1103   2.964   5.794   5.574 -0.4072  0.2394  0.8696
    1MOL    C40 1104   2.892   5.803   5.452 -0.9182 -0.1546 -0.3601
    1MOL    C41 1105   2.820   5.925   5.418  0.3639  0.8004  0.6461
    1MOL    C42 1106   2.848   6.041   5.496  0.3477  0.0670  0.0463
    1MOL    C43 1107   2.912   6.493   5.767 -0.3222 -0.1583 -0.1087
    1MOL     F7 1108   2.994   6.604   5.748 -0.0058  0.6824 -0.1829
    1MOL     F8 1109   2.874   6.477   5.898 -0.5791  0.7645  0.1751
    1MOL     F9 1110   2.802   6.511   5.692  0.2669 -0.0951 -0.1705
    1MOL    C44 1111   3.451   5.673   5.213  0.4797 -1.2409  0.2147
    1MOL    C45 1112   3.376   5.617   5.312 -0.2470  0.1540 -0.7941
    1MOL    C46 1113   3.327   5.472   5.320 -0.1436 -0.5408 -0.2995
    1MOL    F10 1114   3.200   5.459   5.375 -0.3238 -0.1954 -0.1645
    1MOL    F11 1115   3.311   5.426   5.190 -0.1962  0.5373  0.0877
    1MOL     H4 1116   3.488   5.627   5.118  0.6041  0.2922  0.5923
    1MOL     H5 1117   3.318   5.999   5.121 -1.6198 -1.3370 -0.2038
    1MOL     H6 1118   3.369   6.130   4.909  1.7542 -1.9371  0.3772
    1MOL     H7 1119   3.707   5.816   5.102 -0.0628  1.8317  1.2438
    1MOL     H8 1120   3.757   5.958   4.888 -0.8879  0.9559 -1.3042
    1MOL     H9 1121   3.848   6.305   4.552  1.5939 -0.0904 -1.2143
    1MOL    H10 1122   3.594   6.205   4.200 -2.4793 -1.0407 -0.9021
    1MOL    H11 1123   3.451   6.066   4.359  3.8610 -0.9756 -0.0662
    1MOL    H12 1124   3.961   6.602   4.279  1.5603 -1.1116  2.7609
    1MOL    H13 1125   3.569   6.456   4.383 -0.5090 -0.5725 -2.3310
    1MOL    H14 1126   3.889   6.843   4.350 -1.0986 -0.7723 -1.8770
    1MOL     O4 1127   3.371   6.652   4.463 -0.0799 -0.4863  0.9748
    1MOL    H15 1128   3.214   5.947   5.277 -2.0056  0.8925 -0.4206
    1MOL    H16 1129   3.083   6.129   5.351  0.9625 -3.1555 -0.3547
    1MOL    H17 1130   3.503   5.990   5.586 -0.1382 -1.9519  1.2912
    1MOL    H18 1131   3.014   5.703   5.598 -1.1746  1.4245  0.8722
    1MOL    H19 1132   3.048   5.903   5.736 -0.8403  2.1947 -1.1701
    1MOL    H20 1133   2.760   5.931   5.324  1.9147  0.0711 -0.8804
    1MOL    H21 1134   2.800   6.134   5.463 -0.6678  0.2171 -0.5562
    1MOL    H22 1135   2.825   6.230   5.774  2.4060 -3.6295 -3.0768
    1MOL    H23 1136   3.343   6.161   5.699  0.2770 -1.6232 -1.7313
    1MOL    F12 1137   3.415   5.390   5.377 -0.2421 -0.5100  0.0149
    1MOL    C47 1138   3.288   5.698   5.539  0.1734 -0.3933 -0.0336
    1MOL    H24 1139   3.328   5.611   5.593  0.3918  0.3846 -1.0595
    1MOL    H25 1140   3.180   5.682   5.513  0.6222 -1.5361 -1.2484
    1MOL    H26 1141   3.292   5.796   5.603 -0.2471  0.3611 -1.5030
    1MOL     N1 1142   3.902   7.463   4.245  0.0793 -0.1042 -0.2770
    1MOL     N2 1143   3.801   7.270   4.174  0.7777 -0.0960  0.4495
    1MOL     C1 1144   3.786   7.384   4.259 -0.2147  0.2786 -0.2354
    1MOL     C2 1145   3.699   7.180   4.133 -0.0768 -0.2590  0.4375
    1MOL     C3 1146   3.565   7.224   4.117  0.2341  0.8711 -0.3105
    1MOL     C4 1147   3.469   7.135   4.078  0.1178 -0.3407 -0.1669
    1MOL     C5 1148   3.497   7.007   4.045  0.0040  0.4388  1.2697
    1MOL     C6 1149   3.634   6.962   4.049  0.3011 -0.1264 -0.5759
    1MOL     C7 1150   3.732   7.049   4.094 -0.2425  0.6031  0.1876
    1MOL     N3 1151   3.397   6.907   4.029 -0.4465  0.1218  0.6253
    1MOL     C8 1152   3.412   6.785   4.088 -0.4923  0.4568  0.0817
    1MOL     C9 1153   3.285   6.717   4.073  0.6075  0.0876 -0.1414
    1MOL    C10 1154   3.194   6.792   4.009  0.4271 -0.4665 -0.0557
    1MOL    C11 1155   3.271   6.917   3.968  0.7457 -0.6605  0.3417
    1MOL     O1 1156   3.229   7.012   3.901 -0.2940  0.0817  0.1268
    1MOL    C12 1157   3.247   6.607   4.143 -0.0412  0.1923  0.7215
    1MOL    C13 1158   3.113   6.565   4.136  0.2313  0.0965 -0.0600
    1MOL    C14 1159   3.014   6.644   4.068  0.6291 -0.9424 -0.1301
    1MOL    C15 1160   3.059   6.756   3.995 -0.4528 -0.2921  0.2241
    1MOL    C16 1161   3.060   6.469   4.360 -0.0369  0.3673 -0.7338
    1MOL    C17 1162   3.025   6.599   4.398  0.2713 -0.6338  0.0573
    1MOL    C18 1163   3.013   6.634   4.535 -0.0014  0.3377 -0.4436
    1MOL    C19 1164   3.078   6.373   4.463 -0.3225  0.4110  0.6144
    1MOL    C20 1165   3.032   6.535   4.630  0.1893  0.4007  0.0781
    1MOL    C21 1166   3.059   6.400   4.600  0.2991 -0.0747  0.4491
    1MOL    C22 1167   3.082   6.430   4.214 -0.2262  0.1262  0.3857
    1MOL    C23 1168   2.952   6.361   4.167  0.1954  0.1110  0.0386
    1MOL     F1 1169   2.943   6.246   4.239 -0.1389  0.3238  0.3306
    1MOL     F2 1170   2.950   6.336   4.033 -0.0245  0.0457 -0.0324
    1MOL     F3 1171   2.846   6.437   4.196  0.0393 -0.7058  0.1490
    1MOL    C24 1172   3.200   6.333   4.196 -0.5839 -0.1441 -0.0134
    1MOL     F4 1173   3.231   6.330   4.066 -0.4597 -0.1705  0.2801
    1MOL     F5 1174   3.191   6.203   4.233 -0.0499 -0.4136  0.2269
    1MOL     F6 1175   3.309   6.364   4.265  0.4865  0.5307  0.0666
    1MOL     O2 1176   3.508   6.734   4.134  0.1391  0.3528  0.3285
    1MOL    C25 1177   2.985   6.759   4.611 -0.0154  0.3396 -0.0512
    1MOL     N4 1178   2.984   6.725   4.748 -0.5282 -0.3191 -0.4345
    1MOL    C26 1179   3.012   6.592   4.768 -0.1597  0.2105  0.0772
    1MOL     O3 1180   3.011   6.531   4.874  0.0604 -0.3749  0.0867
    1MOL    C27 1181   3.670   7.415   4.331  0.1302  0.6212 -0.6868
    1MOL    C28 1182   3.617   7.320   4.419  0.0262  0.5367  0.1073
    1MOL    C29 1183   3.585   7.519   4.296 -0.9218  0.4244  0.2669
    1MOL    C30 1184   3.495   7.328   4.475 -0.7787 -0.2735 -0.1790
    1MOL    C31 1185   3.452   7.522   4.347 -0.2506  0.3996  0.0491
    1MOL    C32 1186   3.401   7.429   4.443 -0.4225  0.9183 -0.0156
    1MOL    C33 1187   3.272   7.440   4.498 -0.2168  0.0843 -0.5094
    1MOL     N5 1188   3.197   7.326   4.544  0.5581  0.3838  0.5580
    1MOL     N6 1189   3.191   7.556   4.516 -0.0073 -0.3453 -0.3629
    1MOL    C34 1190   3.076   7.377   4.595 -0.4519  0.7090 -0.2643
    1MOL    C35 1191   3.071   7.509   4.570 -0.4537 -0.4142 -0.4250
    1MOL    C36 1192   3.243   7.690   4.552  0.1208  0.3321 -0.0357
    1MOL     H1 1193   3.191   7.741   4.638  0.6637 -0.2952  1.9156
    1MOL     H2 1194   3.229   7.751   4.470 -0.8570 -1.2053 -1.7688
    1MOL     H3 1195   3.349   7.680   4.550 -1.4121 -2.5747 -2.4741
    1MOL    C37 1196   3.235   7.189   4.539  0.4226 -0.2321  0.2867
    1MOL    C38 1197   3.248   7.138   4.409 -0.1663 -0.2434  0.1333
    1MOL    C39 1198   3.315   7.023   4.385 -0.2451  0.2548 -0.1041
    1MOL    C40 1199   3.386   6.956   4.481  0.0081  0.5934  0.2968
    1MOL    C41 1200   3.364   7.002   4.617 -0.3418  0.9342 -0.0415
    1MOL    C42 1201   3.287   7.113   4.645 -0.2103 -0.3915 -0.0264
    1MOL    C43 1202   2.959   7.600   4.609 -0.5545  0.9710 -0.1905
    1MOL     F7 1203   2.986   7.734   4.587  0.2035  0.0558  0.0885
    1MOL     F8 1204   2.936   7.585   4.743  0.0155 -0.2031  0.0756
    1MOL     F9 1205   2.843   7.579   4.542 -0.6476  0.2224  0.3863
    1MOL    C44 1206   3.933   7.274   4.132  0.0717 -0.1779  0.2571
    1MOL    C45 1207   3.996   7.385   4.178 -0.4009 -0.6302  0.1615
    1MOL    C46 1208   4.134   7.449   4.148  0.2530  0.1499 -0.1805
    1MOL    F10 1209   4.208   7.471   4.258 -0.1483 -0.2597 -0.1577
    1MOL    F11 1210   4.210   7.359   4.067  0.5387  0.0034 -0.7557
    1MOL     H4 1211   3.978   7.196   4.065  2.1271 -0.2914 -4.2210
    1MOL     H5 1212   3.538   7.319   4.140  3.6679 -2.7755  0.2074
    1MOL     H6 1213   3.365   7.177   4.095 -4.9503 -1.2216  1.3222
    1MOL     H7 1214   3.836   7.004   4.091 -1.0391 -2.9600 -0.5619
    1MOL     H8 1215   3.657   6.862   4.018 -1.4194  0.7679  0.1356
    1MOL     H9 1216   3.325   6.568   4.213  1.0950  0.4910  1.1792
    1MOL    H10 1217   2.904   6.621   4.064  0.8379 -0.6695 -1.7563
    1MOL    H11 1218   2.992   6.824   3.941 -0.9319 -0.2051 -1.2792
    1MOL    H12 1219   3.087   6.265   4.440  0.1902  0.1147 -0.3173
    1MOL    H13 1220   2.995   6.683   4.329 -1.4076  1.1611 -2.2029
    1MOL    H14 1221   3.051   6.320   4.677 -0.6383 -0.5951  0.1071
    1MOL     O4 1222   2.981   6.873   4.569 -0.4802 -0.7095 -0.1349
    1MOL    H15 1223   3.684   7.242   4.451 -3.1175 -0.5466 -0.0470
    1MOL    H16 1224   3.489   7.261   4.559  1.0242  1.6903  0.1931
    1MOL    H17 1225   3.624   7.591   4.224  1.5113 -0.8740  1.6878
    1MOL    H18 1226   3.324   6.992   4.282 -2.3286  0.3009  0.1981
    1MOL    H19 1227   3.203   7.187   4.333 -0.0248  0.9529  1.0653
    1MOL    H20 1228   3.410   6.946   4.697  1.8606 -1.4795  1.4500
    1MOL    H21 1229   3.287   7.157   4.738  1.0613 -1.6753 -0.3972
    1MOL    H22 1230   3.003   7.316   4.645  0.0086 -0.3259  0.7802
    1MOL    H23 1231   3.383   7.599   4.316  0.1376 -1.1817  1.3232
    1MOL    F12 1232   4.119   7.566   4.081 -0.5104  0.9817 -0.1402
    1MOL    C47 1233   3.936   7.560   4.356 -0.6029  0.1818  0.0177
    1MOL    H24 1234   4.002   7.636   4.315  1.6871 -2.4546 -0.4566
    1MOL    H25 1235   3.988   7.507   4.440  0.7756  0.3807 -0.6744
    1MOL    H26 1236   3.837   7.598   4.395  0.2654  0.9859 -1.8164
    1MOL     N1 1237   3.557   7.251   4.816 -0.3518 -0.0047 -0.5950
    1MOL     N2 1238   3.502   7.476   4.850 -1.1012  1.1999 -0.1620
    1MOL     C1 1239   3.464   7.341   4.887  0.1484 -0.6246  0.0045
    1MOL     C2 1240   3.456   7.594   4.904 -0.6451 -0.3510 -0.0707
    1MOL     C3 1241   3.323   7.629   4.872 -0.1320  0.7500  0.4952
    1MOL     C4 1242   3.271   7.745   4.931  0.2012  0.0523  0.6004
    1MOL     C5 1243   3.360   7.830   5.002 -0.4466  0.6314  0.9331
    1MOL     C6 1244   3.496   7.789   5.034 -0.6076 -0.5018  0.0436
    1MOL     C7 1245   3.541   7.670   4.986 -0.3990 -0.3646 -0.2026
    1MOL     N3 1246   3.320   7.957   5.060 -0.2167  0.1489 -0.4156
    1MOL     C8 1247   3.398   8.066   5.039  0.0165 -0.3936  0.5738
    1MOL     C9 1248   3.360   8.170   5.141 -0.3212  1.0414  0.5455
    1MOL    C10 1249   3.252   8.114   5.211  0.3908 -0.2641  0.3367
    1MOL    C11 1250   3.226   7.976   5.160 -0.2699  0.6180  0.4213
    1MOL     O1 1251   3.147   7.894   5.206  0.0228 -0.3458 -0.1804
    1MOL    C12 1252   3.422   8.284   5.187 -0.4201  0.3183  0.6950
    1MOL    C13 1253   3.363   8.365   5.284 -0.6746 -0.6028 -0.2245
    1MOL    C14 1254   3.252   8.310   5.355 -0.8217  0.5301 -0.3294
    1MOL    C15 1255   3.195   8.186   5.317  0.1859  0.0886  0.1719
    1MOL    C16 1256   3.600   8.450   5.314 -0.3397 -0.2507 -0.1302
    1MOL    C17 1257   3.661   8.338   5.381  0.4761 -0.5154  0.2442
    1MOL    C18 1258   3.794   8.301   5.361  0.4580 -0.1163 -0.2342
    1MOL    C19 1259   3.683   8.521   5.224 -0.0333  0.3091 -0.1682
    1MOL    C20 1260   3.867   8.371   5.264 -0.1579  0.2949  0.0706
    1MOL    C21 1261   3.815   8.477   5.191  0.3247 -0.5226  0.4248
    1MOL    C22 1262   3.447   8.485   5.335 -0.5831 -0.4395 -0.0720
    1MOL    C23 1263   3.403   8.606   5.253  0.5804  0.4183  0.8198
    1MOL     F1 1264   3.463   8.725   5.288 -0.3380 -0.2039  0.2404
    1MOL     F2 1265   3.272   8.612   5.274 -0.1560  0.5032 -0.2737
    1MOL     F3 1266   3.425   8.575   5.124 -0.1007  0.2422 -0.1329
    1MOL    C24 1267   3.430   8.518   5.490 -0.1897  0.1528  0.6043
    1MOL     F4 1268   3.316   8.587   5.520  0.0149  0.0779  0.0724
    1MOL     F5 1269   3.524   8.607   5.532 -0.0144 -0.1837 -0.1693
    1MOL     F6 1270   3.436   8.409   5.571 -0.2095 -0.5236 -0.8106
    1MOL     O2 1271   3.486   8.078   4.955  0.1037  0.6236 -0.0855
    1MOL    C25 1272   3.881   8.185   5.407  0.2868  0.0136  0.0687
    1MOL     N4 1273   3.999   8.198   5.333  0.4868  0.3882  0.1304
    1MOL    C26 1274   4.002   8.308   5.255  0.2488 -0.2412  0.7425
    1MOL     O3 1275   4.096   8.342   5.186  0.3287  0.0037 -0.4316
    1MOL    C27 1276   3.346   7.304   4.959  0.0449 -0.0489 -0.2893
    1MOL    C28 1277   3.225   7.337   4.901  0.2833 -0.4279  0.7808
    1MOL    C29 1278   3.345   7.236   5.082  0.4757 -0.2333  0.5877
    1MOL    C30 1279   3.106   7.312   4.972  0.1632  0.4227 -0.3709
    1MOL    C31 1280   3.228   7.223   5.153 -0.5222 -0.6313  0.2987
    1MOL    C32 1281   3.100   7.252   5.100  0.2188 -0.3319 -1.0891
    1MOL    C33 1282   2.981   7.223   5.164 -0.5671  0.4771 -1.0431
    1MOL     N5 1283   2.891   7.121   5.134  0.4279  0.4479  0.0772
    1MOL     N6 1284   2.925   7.297   5.268 -0.1790 -0.1363  0.1020
    1MOL    C34 1285   2.795   7.129   5.237  0.7488 -0.1649  0.0100
    1MOL    C35 1286   2.816   7.228   5.321 -0.3090 -0.0555 -0.2522
    1MOL    C36 1287   2.937   7.441   5.263  0.9390 -0.4843 -0.3145
    1MOL     H1 1288   3.047   7.463   5.248 -0.5157 -0.3257 -0.1959
    1MOL     H2 1289   2.894   7.477   5.354  1.2408  1.5442 -0.9416
    1MOL     H3 1290   2.878   7.478   5.183  0.4977 -0.2464  0.9227
    1MOL    C37 1291   2.913   7.010   5.050  0.3369 -0.5858 -0.4284
    1MOL    C38 1292   3.041   6.959   5.034 -0.6797  0.2488  0.0165
    1MOL    C39 1293   3.064   6.862   4.938 -0.2167 -0.4873 -0.3688
    1MOL    C40 1294   2.959   6.822   4.851 -0.0717 -0.0128  0.5636
    1MOL    C41 1295   2.832   6.879   4.862 -0.4811 -0.5004  0.2784
    1MOL    C42 1296   2.811   6.975   4.958  0.3658  0.1006  0.2186
    1MOL    C43 1297   2.750   7.261   5.462  0.1010 -0.1918 -0.4056
    1MOL     F7 1298   2.661   7.177   5.513  0.6571 -0.2979 -0.3313
    1MOL     F8 1299   2.683   7.377   5.450  0.5502  0.6811  0.2106
    1MOL     F9 1300   2.839   7.281   5.560  0.1801  0.1374 -0.2491
    1MOL    C44 1301   3.637   7.456   4.805  0.2485  0.0481 -0.1041
    1MOL    C45 1302   3.666   7.329   4.779 -0.8914  0.0212 -0.2439
    1MOL    C46 1303   3.795   7.294   4.702  0.3053  0.9884  0.1768
    1MOL    F10 1304   3.806   7.361   4.582  0.2152  0.2211  0.1853
    1MOL    F11 1305   3.914   7.321   4.766 -0.0026 -0.2303  0.6125
    1MOL     H4 1306   3.699   7.542   4.787 -0.8571 -4.1702  0.8083
    1MOL     H5 1307   3.260   7.566   4.801  0.0549  1.0345  0.8567
    1MOL     H6 1308   3.167   7.764   4.912 -1.5598  1.4267 -0.9998
    1MOL     H7 1309   3.645   7.654   4.996  1.2016  0.4988  1.6792
    1MOL     H8 1310   3.568   7.855   5.075  0.2733 -0.7853 -1.4518
    1MOL     H9 1311   3.513   8.311   5.141 -0.4943  0.3267 -3.4566
    1MOL    H10 1312   3.200   8.357   5.436  1.9280  3.9297  2.8090
    1MOL    H11 1313   3.113   8.144   5.374  0.2994 -1.9970 -0.8100
    1MOL    H12 1314   3.653   8.607   5.171  0.3684  1.6584 -0.1948
    1MOL    H13 1315   3.605   8.273   5.446  4.5256  1.8006 -1.7038
    1MOL    H14 1316   3.873   8.525   5.119 -2.7517 -1.9626 -0.3114
    1MOL     O4 1317   3.854   8.110   5.493  0.3621  0.3476  0.1297
    1MOL    H15 1318   3.218   7.372   4.797 -1.0196  0.5040 -0.1624
    1MOL    H16 1319   3.013   7.340   4.916 -2.1181  0.7304  0.0395
    1MOL    H17 1320   3.431   7.192   5.133 -1.5886 -0.6666  1.3108
    1MOL    H18 1321   3.160   6.814   4.930  1.0965  0.2155 -0.9228
    1MOL    H19 1322   3.130   6.993   5.093 -1.3003  1.1777  2.2096
    1MOL    H20 1323   2.749   6.851   4.793 -0.4011 -0.0559 -1.7185
    1MOL    H21 1324   2.715   7.028   4.961  1.3093 -0.8271 -1.3366
    1MOL    H22 1325   2.726   7.043   5.247  1.1307  0.0445  2.9522
    1MOL    H23 1326   3.235   7.185   5.252 -0.9182  1.1378  0.6643
    1MOL    F12 1327   3.794   7.162   4.666 -0.1551 -0.1404 -0.3882
    1MOL    C47 1328   3.567   7.108   4.864  0.1845 -0.5653 -0.1337
    1MOL    H24 1329   3.663   7.109   4.919 -0.0135  0.0240  1.1737
    1MOL    H25 1330   3.572   7.045   4.774 -1.2334  1.4755 -0.6344
    1MOL    H26 1331   3.482   7.084   4.930  0.1962 -0.9360  2.5816
    1MOL     N1 1332   3.986   8.220   4.877  0.1419  0.2155  0.1716
    1MOL     N2 1333   4.084   8.235   4.673 -0.3018 -0.1864 -0.7761
    1MOL     C1 1334   4.111   8.207   4.806 -1.0124  0.0553 -0.6610
    1MOL     C2 1335   4.160   8.172   4.581 -0.4578  0.0910  0.4586
    1MOL     C3 1336   4.299   8.193   4.577  0.0974 -0.6286 -0.0306
    1MOL     C4 1337   4.375   8.110   4.493 -0.7024 -0.0765  0.4329
    1MOL     C5 1338   4.317   8.027   4.398  0.5168  0.0859 -0.2846
    1MOL     C6 1339   4.178   8.014   4.393 -0.2900  0.0905 -0.2657
    1MOL     C7 1340   4.096   8.087   4.484 -0.0771 -0.0071 -0.3612
    1MOL     N3 1341   4.397   7.914   4.361  0.3978 -0.1174  0.0419
    1MOL     C8 1342   4.369   7.796   4.420  0.5743 -0.1220  0.2733
    1MOL     C9 1343   4.483   7.707   4.369  0.4602  0.0844  0.2224
    1MOL    C10 1344   4.571   7.785   4.292 -0.9354  0.2956 -0.3537
    1MOL    C11 1345   4.515   7.927   4.287 -0.2029  0.5331 -0.0918
    1MOL     O1 1346   4.564   8.027   4.232  0.6544  0.0182 -0.1760
    1MOL    C12 1347   4.499   7.568   4.390  0.4732 -0.6763  0.6442
    1MOL    C13 1348   4.600   7.496   4.320 -0.0349  0.4111  0.1934
    1MOL    C14 1349   4.687   7.579   4.237 -0.6012 -0.6087 -0.3154
    1MOL    C15 1350   4.670   7.717   4.222 -0.1762 -0.2263 -0.2924
    1MOL    C16 1351   4.618   7.293   4.186  0.6419  0.4731  0.3694
    1MOL    C17 1352   4.704   7.184   4.147  0.2098  0.0093 -0.0758
    1MOL    C18 1353   4.676   7.133   4.020  0.6535  0.1424 -0.2165
    1MOL    C19 1354   4.528   7.354   4.089 -0.0501 -0.3277 -0.5396
    1MOL    C20 1355   4.594   7.201   3.925  0.8180  0.0945 -0.8456
    1MOL    C21 1356   4.525   7.318   3.954  0.5409  0.0608 -0.1703
    1MOL    C22 1357   4.618   7.342   4.334 -0.2539  0.2054 -0.7465
    1MOL    C23 1358   4.759   7.321   4.407  0.4109  0.2262 -0.2135
    1MOL     F1 1359   4.765   7.405   4.519  0.0393 -0.4211 -0.0886
    1MOL     F2 1360   4.858   7.362   4.325 -0.1466 -0.7223  0.0657
    1MOL     F3 1361   4.777   7.191   4.442  0.2432 -0.1331  0.4383
    1MOL    C24 1362   4.505   7.265   4.413  0.1672 -0.2673 -0.2800
    1MOL     F4 1363   4.520   7.132   4.398  0.2942 -0.7454  0.7688
    1MOL     F5 1364   4.381   7.287   4.364  0.0555 -0.3170  0.5240
    1MOL     F6 1365   4.496   7.299   4.545 -0.3508  0.2338 -0.4245
    1MOL     O2 1366   4.280   7.771   4.502 -0.0852 -0.0052 -0.3164
    1MOL    C25 1367   4.726   7.012   3.954  0.2359 -0.0699  0.2225
    1MOL     N4 1368   4.653   7.003   3.833  0.2833  0.6689  0.2905
    1MOL    C26 1369   4.590   7.119   3.804 -0.1916 -0.0145  0.9203
    1MOL     O3 1370   4.541   7.141   3.694 -0.1743 -0.3042  0.6140
    1MOL    C27 1371   4.228   8.181   4.871 -0.7540 -0.2759  0.1273
    1MOL    C28 1372   4.267   8.258   4.980  1.3791 -0.8344 -0.2771
    1MOL    C29 1373   4.305   8.068   4.843  0.5198  0.4253  0.8969
    1MOL    C30 1374   4.386   8.234   5.057  0.3787  0.0758 -0.1885
    1MOL    C31 1375   4.426   8.045   4.918  0.4999 -0.3011  0.5609
    1MOL    C32 1376   4.467   8.121   5.027 -0.0499 -0.2633 -0.6895
    1MOL    C33 1377   4.549   8.069   5.125 -0.4688 -0.4829 -0.3668
    1MOL     N5 1378   4.517   8.025   5.252 -0.0012  0.4844 -0.5470
    1MOL     N6 1379   4.670   8.002   5.082 -0.0572  0.1605 -0.0810
    1MOL    C34 1380   4.622   7.945   5.293 -0.5601  0.0454  0.1977
    1MOL    C35 1381   4.710   7.924   5.198 -0.4319  0.0064 -0.9062
    1MOL    C36 1382   4.772   8.066   5.000  0.2163  0.8408 -0.1046
    1MOL     H1 1383   4.867   8.002   4.988 -0.6500  0.9548  1.9869
    1MOL     H2 1384   4.801   8.161   5.048  0.9109 -0.9566 -0.6476
    1MOL     H3 1385   4.730   8.095   4.901 -0.6026  0.2096 -0.5533
    1MOL    C37 1386   4.393   8.049   5.316 -0.2658 -0.0318  0.3820
    1MOL    C38 1387   4.363   8.162   5.392  0.2202 -0.0149 -0.1470
    1MOL    C39 1388   4.231   8.195   5.424  0.3522  0.0194  0.4109
    1MOL    C40 1389   4.124   8.131   5.358 -0.3264  0.4736  0.3715
    1MOL    C41 1390   4.150   8.016   5.283  0.8915 -0.1201  0.3999
    1MOL    C42 1391   4.288   7.981   5.256  0.6320 -0.1392  0.2837
    1MOL    C43 1392   4.844   7.853   5.222  0.1920  0.1840  0.0329
    1MOL     F7 1393   4.912   7.841   5.108  0.2051 -0.1888  0.0347
    1MOL     F8 1394   4.832   7.733   5.283 -0.2609  0.3458 -0.1870
    1MOL     F9 1395   4.910   7.931   5.302  0.7190 -0.2576 -0.3193
    1MOL    C44 1396   3.948   8.261   4.668 -0.0200  0.5874  0.4964
    1MOL    C45 1397   3.891   8.263   4.785 -0.1751 -0.0109  0.3087
    1MOL    C46 1398   3.741   8.279   4.803  0.3274 -0.7472  0.0676
    1MOL    F10 1399   3.699   8.242   4.927 -0.3421  0.1426 -0.1707
    1MOL    F11 1400   3.711   8.412   4.800  0.0412 -0.2097 -0.2223
    1MOL     H4 1401   3.905   8.275   4.568 -0.3803  0.6491 -1.6564
    1MOL     H5 1402   4.346   8.261   4.647 -0.1277  0.2771  0.4637
    1MOL     H6 1403   4.479   8.102   4.500 -2.1999 -0.0076  0.2299
    1MOL     H7 1404   3.996   8.061   4.488  2.2486  2.0398  1.1953
    1MOL     H8 1405   4.144   7.927   4.340  0.7844  0.4549  0.3340
    1MOL     H9 1406   4.429   7.524   4.463 -4.6564 -2.2973 -0.2264
    1MOL    H10 1407   4.764   7.526   4.177 -0.3873  2.4571  0.6792
    1MOL    H11 1408   4.734   7.767   4.157  0.7892  1.8667 -0.2772
    1MOL    H12 1409   4.464   7.431   4.127  1.6453 -0.2269 -2.0977
    1MOL    H13 1410   4.781   7.145   4.209 -0.9205 -0.5473  3.3277
    1MOL    H14 1411   4.450   7.361   3.884  1.6432  2.0456  0.1581
    1MOL     O4 1412   4.807   6.931   3.997 -0.1340 -0.1904 -0.6721
    1MOL    H15 1413   4.198   8.334   5.005 -1.2624 -2.6933  0.7258
    1MOL    H16 1414   4.422   8.294   5.137 -0.5900 -1.8443  0.6267
    1MOL    H17 1415   4.276   8.000   4.759  1.2266 -0.5387  1.6636
    1MOL    H18 1416   4.210   8.289   5.482  1.6299 -0.5175 -0.0854
    1MOL    H19 1417   4.435   8.231   5.425 -0.6220 -0.7670 -1.2781
    1MOL    H20 1418   4.070   7.972   5.223 -0.8387  1.3877  1.4370
    1MOL    H21 1419   4.299   7.899   5.187  0.6887  0.3426  0.5122
    1MOL    H22 1420   4.619   7.895   5.390  0.1641 -0.7242  0.2707
    1MOL    H23 1421   4.481   7.954   4.899  0.6232 -0.5268 -0.1123
    1MOL    F12 1422   3.661   8.219   4.718  0.0716  0.0210 -0.3477
    1MOL    C47 1423   3.949   8.131   4.991  0.1182  0.8503  0.0851
    1MOL    H24 1424   3.909   8.035   4.964  2.2344  1.1272 -1.9446
    1MOL    H25 1425   3.876   8.176   5.053 -0.5932 -2.4097 -1.3800
    1MOL    H26 1426   4.044   8.107   5.049 -1.5198 -3.4056 -2.6507
    1MOL     N1 1427   4.582   7.396   3.410  0.2830  0.3813 -0.7552
    1MOL     N2 1428   4.797   7.440   3.434 -0.6973 -0.0043 -0.0430
    1MOL     C1 1429   4.711   7.331   3.413  0.1695 -0.2756 -0.1676
    1MOL     C2 1430   4.931   7.425   3.434  0.4578 -0.3593 -0.6141
    1MOL     C3 1431   4.981   7.338   3.523 -0.2322  0.1767  0.2509
    1MOL     C4 1432   5.117   7.293   3.508  0.0172  0.8341 -1.0348
    1MOL     C5 1433   5.182   7.323   3.379  0.5256 -0.0513 -0.1817
    1MOL     C6 1434   5.126   7.423   3.295 -0.1521  0.3589  0.2119
    1MOL     C7 1435   5.004   7.472   3.328 -0.3888  0.8028 -0.0448
    1MOL     N3 1436   5.297   7.245   3.349 -0.2416  0.7373  0.8782
    1MOL     C8 1437   5.276   7.104   3.335  0.2284 -1.1421  0.0911
    1MOL     C9 1438   5.380   7.064   3.246  0.4913 -0.3300 -0.3635
    1MOL    C10 1439   5.463   7.172   3.213  0.6809  0.2181  0.4868
    1MOL    C11 1440   5.416   7.289   3.295  0.1052  0.3187 -0.0086
    1MOL     O1 1441   5.472   7.389   3.331 -0.0489 -0.2226 -0.3162
    1MOL    C12 1442   5.388   6.944   3.174 -0.2348 -0.0423  0.3018
    1MOL    C13 1443   5.477   6.930   3.064  1.0465 -0.2442 -0.0358
    1MOL    C14 1444   5.567   7.037   3.035 -0.1081 -1.0548  0.0741
    1MOL    C15 1445   5.561   7.156   3.109 -0.1472 -0.7985  0.0385
    1MOL    C16 1446   5.312   6.771   2.953 -0.0621  0.6644 -0.2917
    1MOL    C17 1447   5.229   6.878   2.920 -0.1670 -0.2385  1.0561
    1MOL    C18 1448   5.089   6.862   2.902  0.4749 -0.2861  0.4862
    1MOL    C19 1449   5.254   6.643   2.952 -0.3590 -0.2099 -0.4999
    1MOL    C20 1450   5.035   6.732   2.910  0.0647 -0.1929  0.8502
    1MOL    C21 1451   5.117   6.622   2.921  0.7217 -0.0251  0.1142
    1MOL    C22 1452   5.457   6.801   2.991  0.8691  0.9579 -0.4802
    1MOL    C23 1453   5.542   6.802   2.857  0.1880  0.1961 -0.3755
    1MOL     F1 1454   5.525   6.681   2.796 -0.0587 -0.0324 -0.2390
    1MOL     F2 1455   5.683   6.807   2.873  0.1184 -0.1487  0.4022
    1MOL     F3 1456   5.517   6.896   2.757  0.4844 -0.9241 -0.3137
    1MOL    C24 1457   5.523   6.689   3.081 -0.3696  0.8699  0.7053
    1MOL     F4 1458   5.623   6.743   3.151 -0.0859  0.2899  0.2007
    1MOL     F5 1459   5.553   6.569   3.021 -0.2485 -0.5781 -0.1217
    1MOL     F6 1460   5.431   6.647   3.167 -0.4961  0.0057 -0.3218
    1MOL     O2 1461   5.183   7.037   3.381 -0.7995 -0.0579 -0.3865
    1MOL    C25 1462   4.978   6.959   2.895 -0.0535 -0.2221  0.0896
    1MOL     N4 1463   4.862   6.885   2.917 -1.0307 -0.3936  0.7067
    1MOL    C26 1464   4.884   6.748   2.907  0.2661  0.3669  0.0826
    1MOL     O3 1465   4.804   6.661   2.899  0.5483  0.0043  0.3364
    1MOL    C27 1466   4.745   7.195   3.380  0.2025 -0.2438 -0.8695
    1MOL    C28 1467   4.650   7.107   3.420  0.5430 -0.1078  0.6707
    1MOL    C29 1468   4.864   7.146   3.320  0.3050 -0.7201  0.1249
    1MOL    C30 1469   4.657   6.973   3.383 -0.5472 -0.2029 -0.6729
    1MOL    C31 1470   4.880   7.009   3.306  0.3676 -0.2361  0.7523
    1MOL    C32 1471   4.775   6.916   3.337  0.4510 -0.2548 -0.5929
    1MOL    C33 1472   4.781   6.773   3.328 -0.1500 -0.2650 -0.3824
    1MOL     N5 1473   4.702   6.685   3.400 -0.1059 -0.0091 -0.3940
    1MOL     N6 1474   4.871   6.697   3.246 -0.1356 -0.0243  0.4537
    1MOL    C34 1475   4.720   6.561   3.339 -0.1558 -0.2502  0.5869
    1MOL    C35 1476   4.812   6.568   3.244  0.4069  0.0468 -0.3356
    1MOL    C36 1477   5.018   6.694   3.271 -0.0497  0.2102  0.1739
    1MOL     H1 1478   5.052   6.591   3.312 -0.0237  0.0417 -0.9057
    1MOL     H2 1479   5.047   6.765   3.348  1.5767  1.7559  1.1772
    1MOL     H3 1480   5.073   6.734   3.183  1.9086  0.8412  0.5320
    1MOL    C37 1481   4.689   6.707   3.536  0.4129 -0.4236  0.0552
    1MOL    C38 1482   4.565   6.729   3.594  0.8080 -0.4090  0.0355
    1MOL    C39 1483   4.551   6.817   3.700 -0.3823 -0.0819 -0.1559
    1MOL    C40 1484   4.664   6.889   3.739  0.2216 -0.5267 -0.3571
    1MOL    C41 1485   4.794   6.857   3.699  0.7800 -0.0895 -0.4842
    1MOL    C42 1486   4.806   6.756   3.598  1.1027 -0.0729  0.3448
    1MOL    C43 1487   4.879   6.446   3.176 -0.4919  0.6090  1.2175
    1MOL     F7 1488   5.007   6.408   3.211  0.0129  0.4762 -0.2042
    1MOL     F8 1489   4.878   6.458   3.045  0.4989 -0.1141 -0.1658
    1MOL     F9 1490   4.791   6.341   3.197 -0.7862  0.5308  0.3382
    1MOL    C44 1491   4.724   7.557   3.432 -0.3677 -0.0400 -0.0749
    1MOL    C45 1492   4.597   7.532   3.416 -0.1398 -0.0847 -0.4289
    1MOL    C46 1493   4.482   7.635   3.433 -0.1849  0.1048  0.5298
    1MOL    F10 1494   4.422   7.656   3.315 -0.1154 -0.0364 -0.4691
    1MOL    F11 1495   4.394   7.604   3.527  0.0618 -0.5596  0.3160
    1MOL     H4 1496   4.778   7.650   3.437 -0.9769 -1.8136 -0.8269
    1MOL     H5 1497   4.912   7.297   3.597  0.1809  1.0865  1.3058
    1MOL     H6 1498   5.162   7.212   3.571 -2.2184  2.8592  0.5791
    1MOL     H7 1499   4.958   7.542   3.263 -3.9233 -0.5096  0.3484
    1MOL     H8 1500   5.170   7.452   3.199 -2.0207  0.3985 -0.9900
    1MOL     H9 1501   5.318   6.862   3.193  0.0877  1.0066 -0.5807
    1MOL    H10 1502   5.640   7.031   2.954  1.4480 -0.2921  0.3785
    1MOL    H11 1503   5.626   7.240   3.075  2.2299  1.7287 -2.1698
    1MOL    H12 1504   5.311   6.563   2.977 -0.7598  1.5014 -0.3515
    1MOL    H13 1505   5.268   6.977   2.918 -0.7888 -0.1418 -2.0304
    1MOL    H14 1506   5.078   6.518   2.921  2.1336  0.7969 -2.3631
    1MOL     O4 1507   4.992   7.081   2.889  0.6619  0.3343 -0.4142
    1MOL    H15 1508   4.565   7.145   3.477  0.5487 -0.7224  0.4254
    1MOL    H16 1509   4.570   6.913   3.411 -1.5987  0.1470  0.0826
    1MOL    H17 1510   4.937   7.217   3.281 -1.8165 -3.5886  0.4562
    1MOL    H18 1511   4.456   6.845   3.738 -2.4541  0.6295 -1.9012
    1MOL    H19 1512   4.473   6.706   3.538  0.4980  0.5383 -1.8110
    1MOL    H20 1513   4.884   6.904   3.739  2.9600 -1.4624  0.1975
    1MOL    H21 1514   4.909   6.733   3.554  1.6819  0.4041 -1.4944
    1MOL    H22 1515   4.662   6.479   3.383 -1.6002 -0.4124  2.2488
    1MOL    H23 1516   4.972   6.974   3.252  1.3335 -1.0356  1.9431
    1MOL    F12 1517   4.530   7.760   3.472 -0.3437  0.0576  0.0117
    1MOL    C47 1518   4.459   7.341   3.353  0.0918 -0.3452 -0.0418
    1MOL    H24 1519   4.474   7.293   3.252 -0.7971  1.7839 -2.2414
    1MOL    H25 1520   4.385   7.422   3.333 -0.6575 -0.0136  2.1461
    1MOL    H26 1521   4.415   7.278   3.427 -0.3619 -0.8321  1.6419
    1MOL     N1 1522   4.245   6.528   3.466  0.1648 -0.8024 -0.1835
    1MOL     N2 1523   4.081   6.677   3.538  0.1103 -0.1385  0.1516
    1MOL     C1 1524   4.205   6.666   3.466 -0.2954 -0.1598  0.5289
    1MOL     C2 1525   4.003   6.792   3.550  0.7834  0.0933 -0.2845
    1MOL     C3 1526   4.071   6.915   3.588 -0.3844  0.1361 -0.4368
    1MOL     C4 1527   3.990   7.029   3.585  0.1853 -0.4731  0.1425
    1MOL     C5 1528   3.848   7.021   3.563 -0.4234  0.3554  0.0078
    1MOL     C6 1529   3.783   6.899   3.542 -0.4061  0.2558 -0.8185
    1MOL     C7 1530   3.858   6.785   3.538  0.1502 -0.3498  0.3606
    1MOL     N3 1531   3.764   7.129   3.575 -1.1056  0.4305 -0.1567
    1MOL     C8 1532   3.692   7.148   3.686  0.0806  0.2150  0.2354
    1MOL     C9 1533   3.588   7.247   3.646  0.2999 -0.4885 -0.8842
    1MOL    C10 1534   3.607   7.291   3.519 -0.0705 -0.0942 -0.6494
    1MOL    C11 1535   3.731   7.216   3.474 -0.0496 -0.2500  1.0240
    1MOL     O1 1536   3.796   7.240   3.372  0.1799  0.1125  0.6235
    1MOL    C12 1537   3.493   7.306   3.730 -0.0277 -0.0883  0.5618
    1MOL    C13 1538   3.408   7.403   3.682  0.2884  0.0482  0.1486
    1MOL    C14 1539   3.417   7.436   3.546  0.0015  0.4446 -0.6809
    1MOL    C15 1540   3.519   7.385   3.464 -0.2916 -0.0483  0.5230
    1MOL    C16 1541   3.155   7.444   3.688 -0.2064 -0.2947  0.6841
    1MOL    C17 1542   3.086   7.561   3.644 -0.8528 -0.4011  0.1117
    1MOL    C18 1543   2.983   7.544   3.548 -0.5583 -0.0488  0.0542
    1MOL    C19 1544   3.121   7.311   3.638  0.3581 -0.7654 -0.5555
    1MOL    C20 1545   2.951   7.421   3.498 -0.2340  0.7895 -0.0239
    1MOL    C21 1546   3.016   7.299   3.541 -0.0733  0.6628 -0.2760
    1MOL    C22 1547   3.291   7.468   3.762  0.4552  0.3352 -0.7469
    1MOL    C23 1548   3.265   7.402   3.904  0.3747 -0.4890 -0.4285
    1MOL     F1 1549   3.138   7.447   3.944 -0.1684  0.0585  0.3652
    1MOL     F2 1550   3.361   7.429   3.992  0.2545 -0.6499  0.1031
    1MOL     F3 1551   3.249   7.265   3.902  0.3167  0.1956  0.2796
    1MOL    C24 1552   3.337   7.615   3.790  0.2670  0.0000  0.2139
    1MOL     F4 1553   3.465   7.610   3.836  0.3705  0.3235 -0.1789
    1MOL     F5 1554   3.252   7.681   3.872 -0.8032  0.7829  0.1195
    1MOL     F6 1555   3.343   7.692   3.675 -0.1267  0.1669 -0.2342
    1MOL     O2 1556   3.710   7.105   3.795  0.2590  0.2933 -0.0900
    1MOL    C25 1557   2.900   7.651   3.476  0.1423  0.4585 -0.1926
    1MOL     N4 1558   2.823   7.582   3.376  0.0857  0.2529  0.2834
    1MOL    C26 1559   2.844   7.447   3.391 -0.2577 -0.2105  0.6156
    1MOL     O3 1560   2.778   7.364   3.337 -0.2327  0.7778  0.0350
    1MOL    C27 1561   4.249   6.761   3.379 -0.9598  0.1980  0.0327
    1MOL    C28 1562   4.322   6.870   3.426 -0.4715 -0.1876 -0.5713
    1MOL    C29 1563   4.197   6.766   3.249 -0.0832 -1.0526  0.7734
    1MOL    C30 1564   4.333   6.985   3.351 -0.5283 -0.3628 -0.2957
    1MOL    C31 1565   4.208   6.879   3.169  0.0400 -0.1353 -0.5157
    1MOL    C32 1566   4.274   6.994   3.225 -0.4116  0.2384 -0.0368
    1MOL    C33 1567   4.279   7.115   3.150  0.1813 -0.0954 -0.3220
    1MOL     N5 1568   4.375   7.152   3.052  0.4227 -0.0582  0.1743
    1MOL     N6 1569   4.190   7.218   3.170  0.2182  0.2047 -0.6416
    1MOL    C34 1570   4.340   7.284   3.021  0.5449 -0.3155  0.5520
    1MOL    C35 1571   4.236   7.326   3.084  0.3918  0.3388 -0.1455
    1MOL    C36 1572   4.113   7.242   3.294  0.2776  0.3106 -0.0460
    1MOL     H1 1573   3.998   7.241   3.274 -3.2057 -0.5068 -0.2062
    1MOL     H2 1574   4.146   7.347   3.323  1.3603 -0.1782 -1.0701
    1MOL     H3 1575   4.140   7.172   3.371  0.0090  1.6514 -0.0887
    1MOL    C37 1576   4.495   7.085   3.024 -0.1339  0.3249 -0.6374
    1MOL    C38 1577   4.614   7.139   3.073 -0.2862 -0.2874 -0.5515
    1MOL    C39 1578   4.735   7.071   3.034  0.4554  0.1575  0.0304
    1MOL    C40 1579   4.737   6.950   2.957 -0.3168  0.4748  0.3832
    1MOL    C41 1580   4.610   6.903   2.917  0.5838  0.1880  0.0489
    1MOL    C42 1581   4.489   6.964   2.956  0.1784  0.7494  0.3575
    1MOL    C43 1582   4.182   7.469   3.070  0.2022  0.0132  0.0065
    1MOL     F7 1583   4.064   7.473   2.999  0.3259  0.5489  0.3354
    1MOL     F8 1584   4.276   7.549   3.002  0.7973 -0.1273  0.0358
    1MOL     F9 1585   4.175   7.528   3.189 -1.1379 -0.0686 -0.4466
    1MOL    C44 1586   4.046   6.543   3.566 -0.0490 -0.4177 -0.1613
    1MOL    C45 1587   4.141   6.454   3.522 -0.3576 -0.1953 -0.0157
    1MOL    C46 1588   4.131   6.298   3.516 -0.5187 -0.6757  0.5086
    1MOL    F10 1589   4.258   6.251   3.544  0.2405  0.0591 -0.1862
    1MOL    F11 1590   4.040   6.266   3.613  0.5988 -0.0791  0.0088
    1MOL     H4 1591   3.946   6.525   3.602 -0.0270  0.2867 -1.1172
    1MOL     H5 1592   4.178   6.927   3.595 -0.1048  1.3117  0.7147
    1MOL     H6 1593   4.024   7.126   3.613  2.8906  0.2518 -3.0218
    1MOL     H7 1594   3.823   6.684   3.514 -0.2295  1.4937  1.5064
    1MOL     H8 1595   3.675   6.889   3.536  0.2442  2.4320  1.6873
    1MOL     H9 1596   3.484   7.279   3.835 -0.2302 -1.4808  0.1657
    1MOL    H10 1597   3.351   7.508   3.503  1.0110  0.4460 -0.3341
    1MOL    H11 1598   3.534   7.415   3.360  2.6682 -2.5377 -3.5843
    1MOL    H12 1599   3.188   7.229   3.671  0.3916 -1.3914  2.4233
    1MOL    H13 1600   3.124   7.657   3.662 -1.1503 -0.5937  1.4911
    1MOL    H14 1601   2.992   7.200   3.498  1.2358 -0.8127 -0.5960
    1MOL     O4 1602   2.906   7.770   3.494 -0.0758 -0.2732 -0.4219
    1MOL    H15 1603   4.351   6.870   3.532  2.1917 -3.0859  0.9760
    1MOL    H16 1604   4.375   7.065   3.404  1.2745 -1.6043  0.9323
    1MOL    H17 1605   4.130   6.686   3.206 -2.8265 -1.8224 -4.0063
    1MOL    H18 1606   4.826   7.119   3.072 -0.5104  2.2244  0.9289
    1MOL    H19 1607   4.625   7.237   3.125 -2.6641 -2.2989  3.0966
    1MOL    H20 1608   4.604   6.811   2.859 -0.9866 -0.8138  0.3235
    1MOL    H21 1609   4.388   6.920   2.923  0.4080  1.5983  0.3194
    1MOL    H22 1610   4.411   7.349   2.962  3.4076  2.9570  0.4464
    1MOL    H23 1611   4.167   6.884   3.073 -1.8443 -0.2497  2.0016
    1MOL    F12 1612   4.085   6.246   3.394  0.0186  0.3972  0.1036
    1MOL    C47 1613   4.344   6.476   3.363 -0.1459 -0.2341 -0.0203
    1MOL    H24 1614   4.324   6.368   3.344  0.6785  0.5986  1.0550
    1MOL    H25 1615   4.446   6.496   3.398 -1.2035  0.3500 -0.5890
    1MOL    H26 1616   4.328   6.534   3.271  2.4709  3.7770 -0.1846
    1MOL     N1 1617   2.783   7.123   3.103  0.8191 -0.0823 -0.2156
    1MOL     N2 1618   2.677   7.046   3.287  0.4869 -0.3356 -0.6696
    1MOL     C1 1619   2.665   7.134   3.180 -0.1167  0.2958 -0.1275
    1MOL     C2 1620   2.595   7.054   3.400 -0.1911  0.1764 -0.6079
    1MOL     C3 1621   2.457   7.031   3.384 -0.9697  0.6027  0.4847
    1MOL     C4 1622   2.378   7.046   3.501  0.3183 -0.2161 -0.1688
    1MOL     C5 1623   2.438   7.052   3.627 -0.4102 -0.4100 -0.6465
    1MOL     C6 1624   2.577   7.071   3.643 -0.2069  0.1741  0.1262
    1MOL     C7 1625   2.656   7.060   3.531  0.6969  0.0560  0.1599
    1MOL     N3 1626   2.360   7.066   3.745  0.4741 -0.1441  0.0084
    1MOL     C8 1627   2.378   7.175   3.830  0.0566  0.0413  0.4782
    1MOL     C9 1628   2.286   7.154   3.943 -0.0405  0.9081 -0.2715
    1MOL    C10 1629   2.224   7.030   3.929  0.1770  0.2524 -0.0547
    1MOL    C11 1630   2.266   6.974   3.792  0.1384 -0.2496  0.9968
    1MOL     O1 1631   2.240   6.869   3.743  0.2785 -0.3966 -0.2231
    1MOL    C12 1632   2.262   7.227   4.057 -0.6903 -0.5565 -0.2471
    1MOL    C13 1633   2.179   7.183   4.162  0.5422 -0.9985 -0.3540
    1MOL    C14 1634   2.115   7.060   4.143 -1.0950 -0.3878  0.5756
    1MOL    C15 1635   2.148   6.975   4.033 -0.3575 -0.5081  0.0055
    1MOL    C16 1636   2.133   7.433   4.231 -0.2789  0.2372 -0.0145
    1MOL    C17 1637   2.214   7.542   4.264 -0.5885 -0.7543  0.2920
    1MOL    C18 1638   2.208   7.658   4.194  0.1945  0.3438  0.4130
    1MOL    C19 1639   2.038   7.450   4.125  0.7223 -0.1004  0.8181
    1MOL    C20 1640   2.132   7.666   4.080  0.5573  0.1468  0.3184
    1MOL    C21 1641   2.045   7.562   4.041 -0.6720  0.7040 -0.5611
    1MOL    C22 1642   2.162   7.282   4.281  0.3524 -0.7359 -0.4851
    1MOL    C23 1643   2.043   7.232   4.375 -0.1200 -0.0422 -0.0145
    1MOL     F1 1644   2.017   7.331   4.466 -0.2400  0.1435 -0.0250
    1MOL     F2 1645   2.063   7.118   4.451 -0.1893 -0.5326  0.7164
    1MOL     F3 1646   1.928   7.220   4.315  0.0513 -0.0684 -0.0463
    1MOL    C24 1647   2.287   7.279   4.369  0.4331  0.1244  0.2380
    1MOL     F4 1648   2.322   7.156   4.400  0.5304  0.0019  0.6143
    1MOL     F5 1649   2.274   7.346   4.483  0.0435 -0.7233 -0.1212
    1MOL     F6 1650   2.400   7.326   4.306 -0.2388  0.1130 -0.1969
    1MOL     O2 1651   2.457   7.271   3.815  0.2402 -0.5861  0.7151
    1MOL    C25 1652   2.289   7.776   4.206 -0.7451  0.0117  0.5690
    1MOL     N4 1653   2.269   7.850   4.089  0.2464 -0.3278  0.6479
    1MOL    C26 1654   2.177   7.789   4.006 -0.2961 -0.4265  0.0888
    1MOL     O3 1655   2.148   7.825   3.894 -0.0298 -0.3200 -0.1625
    1MOL    C27 1656   2.562   7.228   3.153 -0.0432  0.4525 -0.0719
    1MOL    C28 1657   2.520   7.314   3.252 -0.1698 -0.0824  0.1028
    1MOL    C29 1658   2.516   7.245   3.023  0.6924  0.1133  0.2095
    1MOL    C30 1659   2.432   7.416   3.215  0.1768  0.0251 -0.7703
    1MOL    C31 1660   2.427   7.341   2.987 -0.0026 -0.6345  0.3683
    1MOL    C32 1661   2.388   7.433   3.083 -0.6633 -0.7826 -0.9700
    1MOL    C33 1662   2.321   7.554   3.053 -0.2825  0.1240 -0.3093
    1MOL     N5 1663   2.378   7.680   3.060 -0.1632 -0.0689 -0.6516
    1MOL     N6 1664   2.203   7.560   2.972 -0.0191  0.1990 -0.0147
    1MOL    C34 1665   2.312   7.749   2.958 -0.1743  0.1445  0.0074
    1MOL    C35 1666   2.207   7.683   2.913  0.0485 -0.0892 -0.1840
    1MOL    C36 1667   2.078   7.507   3.016 -0.7875 -0.4988  0.0454
    1MOL     H1 1668   1.982   7.561   3.002  2.4254  0.0829  0.7408
    1MOL     H2 1669   2.088   7.494   3.129  1.6036  0.2929  2.0061
    1MOL     H3 1670   2.075   7.401   2.974  1.5901 -2.8522  0.4838
    1MOL    C37 1671   2.496   7.702   3.130 -0.4024  0.1174 -0.1680
    1MOL    C38 1672   2.614   7.649   3.074 -0.6641 -0.5396 -0.2907
    1MOL    C39 1673   2.725   7.616   3.156  0.0332 -0.1920  0.5150
    1MOL    C40 1674   2.724   7.634   3.296  0.1270  0.2823 -0.2896
    1MOL    C41 1675   2.606   7.696   3.353  0.1197 -0.6764  0.0736
    1MOL    C42 1676   2.494   7.726   3.276 -0.0332 -0.1508  0.5931
    1MOL    C43 1677   2.101   7.742   2.826  0.4241  0.2103  0.8677
    1MOL     F7 1678   2.004   7.647   2.789  0.3172  0.2144 -0.3219
    1MOL     F8 1679   2.172   7.776   2.715 -0.3582 -0.3509 -0.0329
    1MOL     F9 1680   2.049   7.860   2.876 -0.6985 -0.2885 -0.5107
    1MOL    C44 1681   2.799   6.982   3.275 -0.1525 -0.1543  0.2694
    1MOL    C45 1682   2.857   7.021   3.167  0.1280  0.7123  0.4747
    1MOL    C46 1683   2.992   6.971   3.129  0.7539  0.1281 -0.0168
    1MOL    F10 1684   3.045   6.886   3.225  0.4080  0.1270  0.1729
    1MOL    F11 1685   2.980   6.898   3.018  0.0424 -0.1084  0.3925
    1MOL     H4 1686   2.835   6.918   3.352 -0.1403  0.8851 -0.6240
    1MOL     H5 1687   2.414   7.030   3.283 -1.3002  2.0043 -1.3774
    1MOL     H6 1688   2.271   7.052   3.494 -0.0393 -0.2016  0.1087
    1MOL     H7 1689   2.759   7.072   3.546 -1.5369 -1.2044 -1.8643
    1MOL     H8 1690   2.622   7.064   3.738  0.0773 -2.7774 -2.9028
    1MOL     H9 1691   2.311   7.321   4.064 -0.0155 -2.2137 -0.4700
    1MOL    H10 1692   2.040   7.029   4.218 -1.9053 -1.2064 -2.3056
    1MOL    H11 1693   2.093   6.875   4.022  1.4200 -0.5655  1.1881
    1MOL    H12 1694   1.984   7.359   4.093 -2.1365 -2.1359  1.4035
    1MOL    H13 1695   2.275   7.538   4.346 -2.4042 -0.7235 -2.8406
    1MOL    H14 1696   1.999   7.566   3.941  2.3711  1.4039  1.6164
    1MOL     O4 1697   2.371   7.817   4.287  0.2202 -0.6750  0.6437
    1MOL    H15 1698   2.546   7.297   3.356  1.9162 -2.1036  1.8557
    1MOL    H16 1699   2.383   7.480   3.291 -2.2368 -1.1605  0.5842
    1MOL    H17 1700   2.546   7.173   2.939  0.4489 -0.1535  0.3011
    1MOL    H18 1701   2.820   7.574   3.105  3.4188  0.0477 -0.9586
    1MOL    H19 1702   2.607   7.633   2.963 -0.9219 -2.5136 -3.6435
    1MOL    H20 1703   2.591   7.698   3.463 -2.1862 -0.0095  0.4877
    1MOL    H21 1704   2.405   7.769   3.332 -0.2243 -0.8378 -0.8432
    1MOL    H22 1705   2.331   7.852   2.931  2.5704  0.5457 -2.5918
    1MOL    H23 1706   2.398   7.348   2.878 -1.8627  1.4333  0.2910
    1MOL    F12 1707   3.075   7.078   3.111 -0.3421 -0.5291  0.0444
    1MOL    C47 1708   2.839   7.247   3.046 -0.0644 -0.0633 -0.2619
    1MOL    H24 1709   2.934   7.222   2.994  0.7809 -2.1824 -0.1160
    1MOL    H25 1710   2.850   7.332   3.117  0.3554  1.7471  0.0236
    1MOL    H26 1711   2.759   7.287   2.979  1.0474  1.1857  0.5759
    1MOL     N1 1712   2.296   7.647   3.601  0.5370  0.0650  0.0760
    1MOL     N2 1713   2.142   7.741   3.463  0.2038 -0.0530 -0.4225
    1MOL     C1 1714   2.244   7.776   3.559  0.2834  0.4289 -0.3674
    1MOL     C2 1715   2.037   7.824   3.432 -0.4367 -0.2768 -0.0245
    1MOL     C3 1716   2.058   7.961   3.416  0.2505 -0.3885 -0.1221
    1MOL     C4 1717   1.946   8.042   3.407 -0.6337  0.0556  0.8938
    1MOL     C5 1718   1.815   7.988   3.407  0.5319  0.3991 -0.0745
    1MOL     C6 1719   1.793   7.849   3.432  0.2018  0.6402  0.1930
    1MOL     C7 1720   1.909   7.766   3.429  0.0301 -0.2751  0.0551
    1MOL     N3 1721   1.709   8.075   3.433  0.0983  0.2704 -1.1115
    1MOL     C8 1722   1.650   8.090   3.552  0.2292 -0.7093 -0.2692
    1MOL     C9 1723   1.556   8.204   3.540 -0.5517 -0.6441  1.3122
    1MOL    C10 1724   1.561   8.253   3.408 -0.7157 -0.4548 -0.8525
    1MOL    C11 1725   1.654   8.161   3.334  0.0124 -0.0877  0.0836
    1MOL     O1 1726   1.689   8.156   3.216 -0.3774 -0.3704 -0.2708
    1MOL    C12 1727   1.457   8.253   3.625 -0.5913  0.2615 -0.1364
    1MOL    C13 1728   1.369   8.366   3.587 -0.1693 -0.4199 -0.2717
    1MOL    C14 1729   1.377   8.409   3.449  1.0337  0.6030 -0.6610
    1MOL    C15 1730   1.482   8.359   3.361 -0.2236  0.3782  0.3399
    1MOL    C16 1731   1.361   8.467   3.814  0.9582 -0.1216  0.3895
    1MOL    C17 1732   1.346   8.422   3.941  0.3015  0.3683  0.5140
    1MOL    C18 1733   1.441   8.459   4.040 -0.5727  0.2356  0.9130
    1MOL    C19 1734   1.472   8.548   3.783  0.1940  0.1549 -0.1638
    1MOL    C20 1735   1.550   8.538   4.009  0.4437  0.5165  0.1676
    1MOL    C21 1736   1.564   8.589   3.880 -0.1114  0.6334  0.8352
    1MOL    C22 1737   1.270   8.431   3.694 -0.3759  0.1431  0.3595
    1MOL    C23 1738   1.190   8.558   3.657 -0.8928  0.9311  0.2684
    1MOL     F1 1739   1.140   8.623   3.764  0.4901  0.3160 -0.5759
    1MOL     F2 1740   1.093   8.537   3.572 -0.4886  0.5710 -0.3268
    1MOL     F3 1741   1.273   8.642   3.594  0.2987  0.0827 -0.4450
    1MOL    C24 1742   1.161   8.325   3.735 -0.0397 -0.4226  0.0441
    1MOL     F4 1743   1.102   8.281   3.623  0.3303 -0.4629  0.5497
    1MOL     F5 1744   1.066   8.379   3.818  0.7459  0.1455 -0.1512
    1MOL     F6 1745   1.201   8.213   3.798 -0.4023 -0.0821 -0.4732
    1MOL     O2 1746   1.667   8.020   3.647  0.0423 -0.7175 -0.0201
    1MOL    C25 1747   1.460   8.401   4.172  0.2356  0.6206  0.2396
    1MOL     N4 1748   1.581   8.446   4.220  0.2564 -0.4219  0.2857
    1MOL    C26 1749   1.640   8.535   4.133  0.8720  0.3742 -0.1006
    1MOL     O3 1750   1.735   8.602   4.158 -0.2151 -0.1238  0.1150
    1MOL    C27 1751   2.287   7.902   3.600 -0.0237 -0.9736 -0.8405
    1MOL    C28 1752   2.202   7.999   3.662 -0.1336 -0.3385 -0.8497
    1MOL    C29 1753   2.421   7.933   3.587 -0.0618  0.3904 -0.3452
    1MOL    C30 1754   2.244   8.121   3.695 -0.1400  0.4041 -0.0549
    1MOL    C31 1755   2.462   8.066   3.605  0.0237  0.5850 -0.4733
    1MOL    C32 1756   2.374   8.154   3.669 -0.8957 -0.1667 -0.1281
    1MOL    C33 1757   2.418   8.280   3.721  0.0313 -0.4279 -0.5698
    1MOL     N5 1758   2.454   8.306   3.858 -0.0575  0.3702  0.0208
    1MOL     N6 1759   2.465   8.394   3.647 -0.0630  0.6084  0.2023
    1MOL    C34 1760   2.473   8.443   3.864 -0.0003  0.1074  0.1243
    1MOL    C35 1761   2.481   8.495   3.741  0.1402 -0.6670  0.3309
    1MOL    C36 1762   2.409   8.429   3.515 -0.2541 -0.3585  0.2293
    1MOL     H1 1763   2.460   8.518   3.473  0.8353 -0.5816  0.9513
    1MOL     H2 1764   2.300   8.431   3.523  1.4292 -1.4606  2.7452
    1MOL     H3 1765   2.435   8.356   3.434  1.0822  0.3504 -0.3829
    1MOL    C37 1766   2.441   8.208   3.955 -0.8473  0.4122  0.4106
    1MOL    C38 1767   2.332   8.215   4.045  0.4451  0.1924 -0.4013
    1MOL    C39 1768   2.276   8.096   4.089  0.1237 -0.3019 -0.4133
    1MOL    C40 1769   2.334   7.972   4.055 -0.5433 -0.1258  0.2320
    1MOL    C41 1770   2.455   7.971   3.977  0.0018  0.2830  0.2538
    1MOL    C42 1771   2.506   8.088   3.927 -0.4906  0.1917  0.3988
    1MOL    C43 1772   2.521   8.639   3.713  0.3999 -0.2864  0.2432
    1MOL     F7 1773   2.449   8.685   3.602  0.1578 -0.0729 -0.0384
    1MOL     F8 1774   2.658   8.652   3.691  0.1061  0.2646 -0.0691
    1MOL     F9 1775   2.505   8.721   3.817 -0.0867  0.0480  0.1976
    1MOL    C44 1776   2.162   7.605   3.431  0.2861  0.7258 -0.7839
    1MOL    C45 1777   2.255   7.552   3.504  0.1343 -0.4222  0.5981
    1MOL    C46 1778   2.281   7.401   3.522 -0.9384  0.2757  0.0884
    1MOL    F10 1779   2.408   7.365   3.521 -0.2578 -0.0167  0.2491
    1MOL    F11 1780   2.222   7.351   3.634 -0.1418 -0.0458  0.3818
    1MOL     H4 1781   2.109   7.557   3.358 -1.6195 -2.8640  2.7874
    1MOL     H5 1782   2.157   8.008   3.416  0.8142  3.1902  0.5831
    1MOL     H6 1783   1.952   8.146   3.393  1.2788 -1.7152 -1.6457
    1MOL     H7 1784   1.891   7.662   3.436 -1.5935  0.9831 -0.1611
    1MOL     H8 1785   1.696   7.810   3.440  1.2749 -0.9003  0.2225
    1MOL     H9 1786   1.443   8.221   3.725 -2.6077  0.6665 -1.6475
    1MOL    H10 1787   1.319   8.499   3.412  1.8401  1.4974 -3.0310
    1MOL    H11 1788   1.497   8.405   3.263 -0.0758  1.2473  2.0448
    1MOL    H12 1789   1.492   8.588   3.686  4.0407 -1.1435 -0.1356
    1MOL    H13 1790   1.267   8.355   3.972 -2.0820  0.1232 -1.8792
    1MOL    H14 1791   1.654   8.640   3.847  0.0562  0.8595 -2.1581
    1MOL     O4 1792   1.396   8.306   4.217 -0.1508 -0.0049  0.2322
    1MOL    H15 1793   2.099   7.972   3.678 -1.1840  0.2142  1.5445
    1MOL    H16 1794   2.167   8.181   3.739  1.9088 -1.4986  1.9217
    1MOL    H17 1795   2.495   7.872   3.552 -0.3598  2.1301  3.0240
    1MOL    H18 1796   2.184   8.096   4.150 -4.3704  0.6406  0.5933
    1MOL    H19 1797   2.290   8.314   4.069  0.2767 -1.7987 -0.7128
    1MOL    H20 1798   2.503   7.877   3.960  2.0209  2.9021 -2.5385
    1MOL    H21 1799   2.577   8.080   3.845 -1.1086 -1.1924  1.3677
    1MOL    H22 1800   2.495   8.499   3.955 -1.2575 -5.0791 -1.4374
    1MOL    H23 1801   2.563   8.081   3.585 -0.8519 -1.4163 -1.3631
    1MOL    F12 1802   2.232   7.326   3.425  0.2384 -0.3025 -0.0459
    1MOL    C47 1803   2.408   7.602   3.686 -0.0348 -0.7140 -0.2076
    1MOL    H24 1804   2.486   7.683   3.705  1.9307  1.6646 -1.7445
    1MOL    H25 1805   2.475   7.536   3.630 -1.1035  0.1244  1.4834
    1MOL    H26 1806   2.364   7.566   3.781 -1.1757  0.6836  0.0689
    1MOL     N1 1807   2.229   8.875   4.687  0.8715  0.0717 -0.2234
    1MOL     N2 1808   2.272   8.762   4.495 -0.2749 -0.5278  0.3877
    1MOL     C1 1809   2.198   8.756   4.617 -0.8385  0.6468 -0.0682
    1MOL     C2 1810   2.317   8.657   4.419 -0.3560 -0.0846  0.4561
    1MOL     C3 1811   2.242   8.544   4.403 -0.1858 -0.6128 -0.0034
    1MOL     C4 1812   2.305   8.426   4.365  1.0971  0.4597 -0.2136
    1MOL     C5 1813   2.442   8.421   4.339 -0.3753  0.0181 -0.5080
    1MOL     C6 1814   2.512   8.541   4.339 -0.4250 -0.4429  0.1448
    1MOL     C7 1815   2.454   8.664   4.386 -0.0103  0.8765  0.4899
    1MOL     N3 1816   2.520   8.298   4.318 -0.1590 -0.0390 -0.3398
    1MOL     C8 1817   2.595   8.281   4.208  0.2186 -0.3365  0.5223
    1MOL     C9 1818   2.653   8.141   4.219 -0.6623 -0.4153 -0.8258
    1MOL    C10 1819   2.600   8.088   4.337 -0.1503 -0.5263  0.3761
    1MOL    C11 1820   2.515   8.186   4.408  0.0837  1.1224 -0.4382
    1MOL     O1 1821   2.451   8.171   4.511 -0.4185  0.2686  1.0615
    1MOL    C12 1822   2.730   8.065   4.133 -1.3242  0.1774  0.4206
    1MOL    C13 1823   2.778   7.943   4.179 -0.7678 -0.3734 -0.6719
    1MOL    C14 1824   2.735   7.892   4.308  0.7575 -0.0217  0.3644
    1MOL    C15 1825   2.650   7.971   4.387 -0.5392  0.0221 -0.3547
    1MOL    C16 1826   2.980   7.979   4.043 -0.5466 -0.2663 -0.3130
    1MOL    C17 1827   3.043   8.064   4.143 -0.1089  0.1132  0.3227
    1MOL    C18 1828   3.121   8.173   4.104  0.2742 -0.0098  0.3050
    1MOL    C19 1829   2.994   8.017   3.908 -0.9036 -0.2997  0.8576
    1MOL    C20 1830   3.146   8.196   3.973 -0.2645  0.0055 -0.6195
    1MOL    C21 1831   3.086   8.118   3.872  0.9390 -0.2875  0.3251
    1MOL    C22 1832   2.880   7.871   4.090  0.6078 -0.5765  0.2382
    1MOL    C23 1833   2.972   7.773   4.172 -0.2777  0.5142  0.0590
    1MOL     F1 1834   3.085   7.745   4.108  0.0403  0.2275 -0.5220
    1MOL     F2 1835   2.916   7.659   4.213  0.0236  0.4116  0.7100
    1MOL     F3 1836   3.010   7.818   4.294  0.0010 -0.0567  0.1965
    1MOL    C24 1837   2.811   7.788   3.983  0.7783  0.0663  1.0940
    1MOL     F4 1838   2.718   7.699   4.025  0.4320 -0.1764 -0.3040
    1MOL     F5 1839   2.898   7.719   3.901 -0.0753 -0.1113  0.2637
    1MOL     F6 1840   2.742   7.876   3.901 -0.2916  0.0217 -0.0653
    1MOL     O2 1841   2.608   8.360   4.115 -0.4815  0.5217  0.3546
    1MOL    C25 1842   3.191   8.275   4.189  0.8502 -0.0270 -0.2046
    1MOL     N4 1843   3.262   8.358   4.103 -0.1461  0.0480  0.4808
    1MOL    C26 1844   3.239   8.313   3.975  0.8227  0.3741 -0.1108
    1MOL     O3 1845   3.297   8.352   3.879 -0.4311 -0.4581  0.0668
    1MOL    C27 1846   2.110   8.654   4.664 -0.2046  0.7049  0.1567
    1MOL    C28 1847   2.150   8.517   4.665  0.3479 -0.0621 -0.0281
    1MOL    C29 1848   1.991   8.695   4.730  0.2753  0.9263  0.0686
    1MOL    C30 1849   2.065   8.420   4.714  0.0846  0.1452  0.0843
    1MOL    C31 1850   1.911   8.593   4.792  0.0251  0.2246 -0.0880
    1MOL    C32 1851   1.948   8.459   4.782  0.3933  0.6902 -0.9287
    1MOL    C33 1852   1.863   8.357   4.828  0.7895 -0.4346  0.5323
    1MOL     N5 1853   1.763   8.296   4.738  0.1358 -0.4084 -0.2214
    1MOL     N6 1854   1.912   8.254   4.909 -0.5847 -0.4832  0.2682
    1MOL    C34 1855   1.768   8.164   4.781  0.0789  0.0615  0.0288
    1MOL    C35 1856   1.858   8.135   4.872  0.3539  0.3051 -0.2011
    1MOL    C36 1857   2.032   8.255   4.992 -0.0244  0.3411 -0.7650
    1MOL     H1 1858   2.116   8.190   4.947 -0.9698  1.5741 -1.0917
    1MOL     H2 1859   2.004   8.213   5.090  1.2159  0.5005  0.5036
    1MOL     H3 1860   2.076   8.352   5.009  0.4928 -1.8419 -1.6835
    1MOL    C37 1861   1.717   8.351   4.613 -0.4764 -0.0384 -0.4313
    1MOL    C38 1862   1.579   8.372   4.591 -0.4713 -0.0651 -0.0590
    1MOL    C39 1863   1.534   8.417   4.462 -0.6408 -0.9663 -0.4704
    1MOL    C40 1864   1.626   8.418   4.350 -0.6287  0.0102 -0.7160
    1MOL    C41 1865   1.765   8.381   4.375 -0.0361 -0.5299  0.7039
    1MOL    C42 1866   1.809   8.343   4.504  0.6978  0.3153  0.0346
    1MOL    C43 1867   1.903   7.994   4.909 -0.6430 -0.0437 -0.5428
    1MOL     F7 1868   2.039   7.971   4.919  0.1620 -0.0868  0.4381
    1MOL     F8 1869   1.849   7.906   4.824  0.2106 -0.6091  0.3494
    1MOL     F9 1870   1.852   7.960   5.032  0.5703  0.0466  0.3539
    1MOL    C44 1871   2.299   8.894   4.479  0.2214 -0.1653  0.3590
    1MOL    C45 1872   2.285   8.963   4.593  0.3581  0.2707 -0.0186
    1MOL    C46 1873   2.303   9.111   4.614 -0.3639 -0.7613  0.4026
    1MOL    F10 1874   2.391   9.156   4.521  0.4397  0.4585 -0.0289
    1MOL    F11 1875   2.193   9.189   4.605 -0.1726  0.4829 -0.5494
    1MOL     H4 1876   2.336   8.941   4.388  0.8385 -3.5115 -0.0708
    1MOL     H5 1877   2.133   8.548   4.435  1.6984  1.8835  3.7287
    1MOL     H6 1878   2.240   8.335   4.373  3.3455 -1.6447 -0.6315
    1MOL     H7 1879   2.521   8.751   4.396 -1.9189  0.8509  0.7407
    1MOL     H8 1880   2.620   8.540   4.335 -2.4550  0.7854  0.6132
    1MOL     H9 1881   2.759   8.103   4.036 -1.4405 -0.2096  0.0592
    1MOL    H10 1882   2.766   7.801   4.352  0.1147  0.4600  0.2342
    1MOL    H11 1883   2.614   7.923   4.480 -0.0486 -1.1536  1.0502
    1MOL    H12 1884   2.960   7.950   3.828 -0.3076  0.8379 -0.0052
    1MOL    H13 1885   3.017   8.052   4.254  0.3657  2.0703 -1.7910
    1MOL    H14 1886   3.103   8.134   3.771  1.1663 -0.6206 -0.3138
    1MOL     O4 1887   3.198   8.283   4.308  0.9021  0.3517 -0.3534
    1MOL    H15 1888   2.246   8.496   4.637  1.9345 -0.4735 -1.7031
    1MOL    H16 1889   2.091   8.317   4.703  0.8234  0.9942  0.8266
    1MOL    H17 1890   1.967   8.799   4.750 -0.2711 -0.0639  1.3206
    1MOL    H18 1891   1.430   8.453   4.446 -0.9622 -1.1147  1.1067
    1MOL    H19 1892   1.510   8.353   4.669  2.4682  0.0860  0.0292
    1MOL    H20 1893   1.841   8.376   4.291  2.6143 -1.7055 -0.2830
    1MOL    H21 1894   1.911   8.310   4.516 -0.4818 -0.4864  2.9981
    1MOL    H22 1895   1.698   8.089   4.748  1.2044  0.4531  1.7359
    1MOL    H23 1896   1.826   8.632   4.843  1.1287  0.6319 -0.1938
    1MOL    F12 1897   2.365   9.137   4.732 -0.0793 -0.4545  0.0771
    1MOL    C47 1898   2.228   8.893   4.834 -0.2563  0.4267 -0.0267
    1MOL    H24 1899   2.153   8.967   4.870 -2.8559  1.2451  0.6569
    1MOL    H25 1900   2.322   8.945   4.866 -0.2695  1.2271  0.2049
    1MOL    H26 1901   2.214   8.791   4.877  2.3630  0.2217 -1.1796
    1MOL    H27 1902   3.343   8.414   4.124 -0.2136  3.0646 -1.1897
    2MOL     N1 1903   1.877   2.618   0.099  0.4387 -0.2438  0.4910
    2MOL     N2 1904   2.034   2.580   0.262  0.1181  0.8643  0.1944
    2MOL     C1 1905   2.014   2.586   0.122 -0.1115  0.1357 -0.5085
    2MOL     C2 1906   2.151   2.566   0.333 -1.1643  0.1564  0.1591
    2MOL     C3 1907   2.159   2.468   0.431 -0.0115  0.2385  0.2652
    2MOL     C4 1908   2.268   2.469   0.521 -0.6309  0.1337  0.2381
    2MOL     C5 1909   2.369   2.565   0.507  0.1109  0.0365 -0.6481
    2MOL     C6 1910   2.369   2.654   0.400 -0.4032 -0.5473 -0.1754
    2MOL     C7 1911   2.263   2.650   0.310  0.7395 -0.3026 -0.0645
    2MOL     N3 1912   2.460   2.585   0.612 -0.8945 -0.4639 -0.0326
    2MOL     C8 1913   2.587   2.638   0.604 -0.4310 -0.1760  0.9547
    2MOL     C9 1914   2.641   2.652   0.737 -0.3564 -0.3819  0.2051
    2MOL    C10 1915   2.547   2.615   0.827 -0.2997 -0.5770 -0.2440
    2MOL    C11 1916   2.420   2.574   0.746 -0.2139  0.3707  0.4590
    2MOL     O1 1917   2.304   2.558   0.786  0.9261 -0.2366 -0.6448
    2MOL    C12 1918   2.773   2.686   0.777 -0.2241 -0.4724  0.8467
    2MOL    C13 1919   2.803   2.686   0.919  0.3480 -0.5368  0.2442
    2MOL    C14 1920   2.701   2.658   1.010 -0.0767  0.0330  0.8007
    2MOL    C15 1921   2.573   2.620   0.964 -0.1277 -0.8106  0.3370
    2MOL    C16 1922   3.030   2.634   0.861  0.0384  0.1191  0.6003
    2MOL    C17 1923   3.098   2.688   0.745 -0.0766  0.3456  0.5199
    2MOL    C18 1924   3.161   2.590   0.658  0.2233  0.0795  1.0610
    2MOL    C19 1925   3.040   2.494   0.884  0.5415 -0.3049 -0.2923
    2MOL    C20 1926   3.177   2.457   0.693 -0.1502  0.9521  0.3130
    2MOL    C21 1927   3.121   2.408   0.808  0.4787 -0.2639 -0.4593
    2MOL    C22 1928   2.947   2.729   0.955  0.3529 -1.1329 -0.5116
    2MOL    C23 1929   2.970   2.882   0.943  0.2691 -0.4646  0.2503
    2MOL     F1 1930   2.883   2.946   1.017  0.3396  0.0833  0.8103
    2MOL     F2 1931   2.948   2.930   0.822 -0.7059  0.2140  0.3662
    2MOL     F3 1932   3.087   2.927   0.981 -0.3970  0.0509  0.3444
    2MOL    C24 1933   2.996   2.698   1.109 -0.4553 -0.1946 -0.1963
    2MOL     F4 1934   2.946   2.586   1.158 -0.5480  0.0012  0.1614
    2MOL     F5 1935   2.971   2.796   1.203  0.2669  0.0582 -0.2254
    2MOL     F6 1936   3.129   2.686   1.099  0.1175 -0.1821 -0.0993
    2MOL     O2 1937   2.649   2.645   0.502 -0.7552 -0.4335  0.3299
    2MOL    C25 1938   3.222   2.606   0.522  0.4739  0.2702 -0.5611
    2MOL     N4 1939   3.281   2.486   0.485 -0.1694  0.4041 -0.3714
    2MOL    C26 1940   3.264   2.397   0.591  0.1611  0.0837  0.0271
    2MOL     O3 1941   3.308   2.287   0.601 -0.2720  0.1032 -0.0842
    2MOL    C27 1942   2.115   2.594   0.032  0.3917 -1.0620  0.2664
    2MOL    C28 1943   2.164   2.716  -0.019  0.6921 -0.0963  0.0517
    2MOL    C29 1944   2.166   2.473  -0.019  0.4067 -0.5826 -0.5899
    2MOL    C30 1945   2.254   2.708  -0.125 -0.2042 -0.0695 -0.1230
    2MOL    C31 1946   2.265   2.473  -0.120  0.0654 -0.0866  0.1082
    2MOL    C32 1947   2.307   2.589  -0.182  0.4144 -0.4216  0.2705
    2MOL    C33 1948   2.399   2.595  -0.288 -0.6719 -0.1339  0.1505
    2MOL     N5 1949   2.409   2.504  -0.394  0.4418 -0.1011 -0.6131
    2MOL     N6 1950   2.482   2.711  -0.330  0.8362  0.6064 -0.4252
    2MOL    C34 1951   2.479   2.565  -0.495  0.6092 -0.1722 -0.0497
    2MOL    C35 1952   2.519   2.683  -0.458  0.0346  0.5099  0.1418
    2MOL    C36 1953   2.589   2.754  -0.244 -0.2450 -0.5864  0.2197
    2MOL     H1 1954   2.670   2.686  -0.238  1.7187 -1.2450 -0.7300
    2MOL     H2 1955   2.562   2.780  -0.145 -2.0753 -0.9463 -2.2544
    2MOL     H3 1956   2.629   2.843  -0.287  1.9896 -1.9938  1.3499
    2MOL    C37 1957   2.391   2.372  -0.400 -0.2257  0.5512  0.4920
    2MOL    C38 1958   2.490   2.285  -0.343  0.4663 -0.0713  0.6136
    2MOL    C39 1959   2.470   2.147  -0.348 -1.1017  0.0674  0.4145
    2MOL    C40 1960   2.350   2.093  -0.397 -0.0302 -0.3891 -0.4963
    2MOL    C41 1961   2.256   2.175  -0.462 -0.1155 -0.7678  0.2109
    2MOL    C42 1962   2.275   2.312  -0.458  0.5647  0.1687  0.6482
    2MOL    C43 1963   2.589   2.781  -0.554  0.0130  0.1735  0.0585
    2MOL     F7 1964   2.724   2.763  -0.558 -0.2243  0.8418  0.1832
    2MOL     F8 1965   2.573   2.908  -0.514 -0.1429  0.0903 -0.3128
    2MOL     F9 1966   2.536   2.779  -0.682 -0.5674 -0.0328  0.0917
    2MOL    C44 1967   1.905   2.614   0.318 -0.1600  0.1113 -0.0490
    2MOL    C45 1968   1.814   2.629   0.225 -0.2435 -0.0532  0.4649
    2MOL    C46 1969   1.665   2.643   0.251  0.1834 -0.2371 -0.0291
    2MOL    F10 1970   1.639   2.777   0.255 -0.0015  0.1925 -0.3668
    2MOL    F11 1971   1.592   2.569   0.163 -0.8312 -0.4646  0.7463
    2MOL     H4 1972   1.893   2.629   0.423 -0.5749 -2.2641  4.4079
    2MOL     H5 1973   2.078   2.392   0.439 -0.8945  0.5279 -1.2010
    2MOL     H6 1974   2.273   2.402   0.602  2.5576  2.5801 -1.2050
    2MOL     H7 1975   2.262   2.736   0.242  0.1295  0.3056 -0.0843
    2MOL     H8 1976   2.445   2.732   0.384  1.0414  0.1182 -0.0464
    2MOL     H9 1977   2.833   2.728   0.695  1.6461  1.5173  0.5165
    2MOL    H10 1978   2.722   2.656   1.120 -2.4537 -0.2242 -1.4930
    2MOL    H11 1979   2.495   2.577   1.026 -1.6707 -0.3536  1.7287
    2MOL    H12 1980   2.978   2.456   0.964  1.1858  1.7063  0.9922
    2MOL    H13 1981   3.095   2.793   0.720 -1.2778  1.7613  2.6087
    2MOL    H14 1982   3.126   2.303   0.822 -0.8741 -2.7553  0.8604
    2MOL     O4 1983   3.218   2.711   0.458  0.3290  0.2627 -0.0505
    2MOL    H15 1984   2.116   2.806   0.011 -0.2363 -0.8258  0.6566
    2MOL    H16 1985   2.288   2.802  -0.165  2.2021 -0.7436 -3.1065
    2MOL    H17 1986   2.130   2.374   0.020  0.0197  0.1794 -1.9530
    2MOL    H18 1987   2.535   2.068  -0.312 -2.8164  1.8951 -1.1343
    2MOL    H19 1988   2.323   1.985  -0.389 -1.6699 -1.3798  1.5857
    2MOL    H20 1989   2.584   2.321  -0.299  0.0913  0.9597  1.0875
    2MOL    H21 1990   2.162   2.137  -0.508  1.2087 -4.4196  2.1310
    2MOL    H22 1991   2.191   2.369  -0.493 -0.4500 -1.3239 -3.5032
    2MOL    H23 1992   2.510   2.512  -0.590 -0.8838 -0.2975 -3.1699
    2MOL    H24 1993   2.308   2.374  -0.152 -1.3767  1.4395  0.3046
    2MOL    F12 1994   1.645   2.595   0.377  0.0670 -0.1993 -0.3250
    2MOL    C47 1995   1.815   2.624  -0.033  0.1144 -0.1631  0.1644
    2MOL    H25 1996   1.751   2.712  -0.050  1.2241 -1.3429 -1.4514
    2MOL    H26 1997   1.770   2.528  -0.055 -2.5597  0.6042 -2.7176
    2MOL    H27 1998   1.894   2.619  -0.109 -3.2950  2.0725 -0.3449
    2MOL     N1 1999   2.910   2.085  -0.017  0.3791  0.2977 -0.0341
    2MOL     N2 2000   2.994   2.062   0.199  0.4054  0.0663  0.0645
    2MOL     C1 2001   3.018   2.111   0.065 -0.4703 -0.5211 -0.2461
    2MOL     C2 2002   3.080   2.047   0.309  0.5779 -0.5748 -0.4700
    2MOL     C3 2003   3.200   2.116   0.319  0.0986  0.3611 -0.7991
    2MOL     C4 2004   3.288   2.080   0.418 -0.3674 -0.0677 -0.2186
    2MOL     C5 2005   3.253   1.982   0.512  0.3832  0.1815  0.3651
    2MOL     C6 2006   3.127   1.928   0.512  0.2664  0.0875  0.6865
    2MOL     C7 2007   3.044   1.956   0.409 -0.4256  0.4354  0.7865
    2MOL     N3 2008   3.352   1.920   0.592  0.3261 -0.3859  0.2646
    2MOL     C8 2009   3.396   1.799   0.560 -0.0255  0.2135 -0.2886
    2MOL     C9 2010   3.514   1.780   0.640 -0.1770 -0.1731 -0.5092
    2MOL    C10 2011   3.540   1.896   0.715  0.3737  0.1240  0.2521
    2MOL    C11 2012   3.429   1.989   0.682  0.3140 -0.6033 -0.8164
    2MOL     O1 2013   3.408   2.100   0.739  0.6217  0.0046  0.3465
    2MOL    C12 2014   3.592   1.666   0.645  0.6633  0.7345 -0.9579
    2MOL    C13 2015   3.702   1.672   0.731 -0.6534  0.1644 -0.1483
    2MOL    C14 2016   3.733   1.789   0.807 -0.2763  0.1118 -0.0972
    2MOL    C15 2017   3.645   1.898   0.810  0.1049  0.3050 -0.1329
    2MOL    C16 2018   3.705   1.428   0.714 -0.4611 -0.0673 -0.2278
    2MOL    C17 2019   3.591   1.437   0.798  0.5017  0.9279  0.0765
    2MOL    C18 2020   3.481   1.363   0.751 -0.2409  0.1666 -0.0260
    2MOL    C19 2021   3.715   1.330   0.607  0.4291 -0.5428 -0.5067
    2MOL    C20 2022   3.482   1.282   0.640  0.5256  0.3662 -0.5282
    2MOL    C21 2023   3.598   1.266   0.565 -0.8497  0.1145  0.5617
    2MOL    C22 2024   3.798   1.549   0.729 -0.3896 -0.5648 -0.9524
    2MOL    C23 2025   3.899   1.578   0.606 -0.1971 -0.1143 -0.5677
    2MOL     F1 2026   3.821   1.599   0.500  0.3230  0.1026  0.1155
    2MOL     F2 2027   3.974   1.474   0.582 -0.1448  0.4431 -0.5256
    2MOL     F3 2028   3.979   1.683   0.625  0.5509 -0.5010  0.3620
    2MOL    C24 2029   3.888   1.527   0.859 -0.0162  0.1459 -0.0590
    2MOL     F4 2030   3.991   1.606   0.852  0.4215  0.1686  0.0593
    2MOL     F5 2031   3.941   1.405   0.863  0.5386  0.4980  0.3280
    2MOL     F6 2032   3.824   1.540   0.981 -0.3930  0.2429 -0.0306
    2MOL     O2 2033   3.327   1.721   0.479  0.5152  0.0782 -0.3259
    2MOL    C25 2034   3.341   1.370   0.802 -0.4913 -0.0751  0.0495
    2MOL     N4 2035   3.272   1.274   0.733 -0.2870  0.5728  0.2169
    2MOL    C26 2036   3.344   1.225   0.625 -0.2215 -0.5185 -0.3723
    2MOL     O3 2037   3.302   1.148   0.541 -0.3522  0.0467  0.3040
    2MOL    C27 2038   3.141   2.166   0.007  0.1230  0.2090 -1.2934
    2MOL    C28 2039   3.257   2.094   0.023  0.0481 -1.1654  0.2064
    2MOL    C29 2040   3.139   2.275  -0.073 -0.3079 -0.2801  0.0418
    2MOL    C30 2041   3.381   2.140  -0.030 -0.0107  0.1675 -0.4246
    2MOL    C31 2042   3.252   2.327  -0.139 -0.3622 -0.4117 -0.1113
    2MOL    C32 2043   3.377   2.264  -0.100 -0.1890  0.5048  0.3447
    2MOL    C33 2044   3.492   2.342  -0.115  0.8079  0.2815  0.0356
    2MOL     N5 2045   3.542   2.416  -0.002 -0.5509  0.4195 -0.0250
    2MOL     N6 2046   3.542   2.402  -0.231 -0.5659 -0.7349  0.0200
    2MOL    C34 2047   3.614   2.518  -0.054  0.0551  0.1178 -0.5930
    2MOL    C35 2048   3.616   2.512  -0.180 -0.0382 -0.1439  0.1001
    2MOL    C36 2049   3.473   2.407  -0.360  0.2396 -0.0465  0.6436
    2MOL     H1 2050   3.437   2.510  -0.404 -2.8391 -1.1191  2.8303
    2MOL     H2 2051   3.379   2.354  -0.343  0.8770 -1.3023  0.0322
    2MOL     H3 2052   3.531   2.346  -0.438  2.2309 -1.3798  1.4387
    2MOL    C37 2053   3.472   2.424   0.119 -0.1478  0.4267  0.3260
    2MOL    C38 2054   3.342   2.492   0.120  0.1943  0.6187 -0.6526
    2MOL    C39 2055   3.276   2.508   0.240  0.9019 -0.3499 -0.1657
    2MOL    C40 2056   3.335   2.453   0.356 -0.4307 -0.8837 -0.2997
    2MOL    C41 2057   3.462   2.387   0.355 -0.3570 -0.8143 -1.5261
    2MOL    C42 2058   3.529   2.369   0.236 -0.8076  0.2944  0.1939
    2MOL    C43 2059   3.677   2.621  -0.267 -0.4039  0.2639 -0.5246
    2MOL     F7 2060   3.611   2.640  -0.382 -0.2897  0.2839 -0.1987
    2MOL     F8 2061   3.806   2.588  -0.300  0.0451 -0.1060  0.0908
    2MOL     F9 2062   3.685   2.741  -0.203 -0.0940  0.4716  0.0350
    2MOL    C44 2063   2.858   2.023   0.194 -0.0338  0.1589 -0.0899
    2MOL    C45 2064   2.811   2.030   0.071  0.1427  0.3468  0.3732
    2MOL    C46 2065   2.678   1.967   0.029 -0.3182 -0.3675 -0.1961
    2MOL    F10 2066   2.577   1.980   0.121 -0.4313 -0.1351  0.4352
    2MOL    F11 2067   2.631   2.020  -0.079  0.2113  0.1910 -0.0784
    2MOL     H4 2068   2.807   1.972   0.275  0.7312  1.3639  0.8857
    2MOL     H5 2069   3.229   2.194   0.252  0.6915 -0.8213  3.0851
    2MOL     H6 2070   3.387   2.131   0.427  1.3496 -0.0834  0.6674
    2MOL     H7 2071   2.951   1.889   0.409 -1.0759 -1.3268  0.6489
    2MOL     H8 2072   3.094   1.853   0.589 -0.5927  1.1776  0.7512
    2MOL     H9 2073   3.568   1.581   0.577  0.8406  1.4100  1.9376
    2MOL    H10 2074   3.819   1.790   0.871 -1.4584  3.0341  1.3108
    2MOL    H11 2075   3.671   1.983   0.872  2.9394 -0.1203  1.1628
    2MOL    H12 2076   3.810   1.312   0.556 -1.1302 -0.4936  0.2511
    2MOL    H13 2077   3.578   1.506   0.876  2.4515 -1.6231  0.3108
    2MOL    H14 2078   3.596   1.203   0.479 -2.2045  0.7215  1.2956
    2MOL     O4 2079   3.296   1.444   0.889  0.3494  0.2264  0.0865
    2MOL    H15 2080   3.254   2.012   0.082 -1.5976 -1.5646  0.9091
    2MOL    H16 2081   3.470   2.090  -0.005  1.4111  0.5876 -2.6439
    2MOL    H17 2082   3.041   2.331  -0.083  0.4607  0.1824  1.4169
    2MOL    H18 2083   3.182   2.566   0.251 -0.7670 -0.9389 -0.2307
    2MOL    H19 2084   3.293   2.530   0.036  0.7911  0.8520  0.6926
    2MOL    H20 2085   3.505   2.362   0.446  1.0463 -0.5780  2.6199
    2MOL    H21 2086   3.619   2.311   0.238 -0.8802  0.8807  0.0344
    2MOL    H22 2087   3.653   2.592   0.014 -0.3244 -0.0404 -0.6327
    2MOL    H23 2088   3.249   2.420  -0.197 -0.4032  0.4839 -2.2373
    2MOL    F12 2089   2.696   1.843  -0.002 -0.4496  0.0506  0.7124
    2MOL    C47 2090   2.926   2.051  -0.156  0.0106 -0.6506  0.3375
    2MOL    H24 2091   2.855   2.106  -0.204 -0.9614  1.0165  1.8777
    2MOL    H25 2092   2.920   1.944  -0.171 -1.9442 -0.9185  0.2760
    2MOL    H26 2093   3.021   2.091  -0.175 -0.3534 -2.0309  0.5228
    2MOL     N1 2094   2.792   2.110   0.710  0.6166  0.3287 -0.2722
    2MOL     N2 2095   2.618   2.014   0.587  0.4027 -0.0092  0.6019
    2MOL     C1 2096   2.719   1.992   0.685  0.7223 -0.3313 -0.9871
    2MOL     C2 2097   2.560   1.907   0.515 -0.3093 -0.4717  0.0889
    2MOL     C3 2098   2.636   1.806   0.451 -0.4671  0.2469 -0.0317
    2MOL     C4 2099   2.580   1.715   0.368  0.0440  0.7320 -0.6309
    2MOL     C5 2100   2.437   1.710   0.354  0.3789 -0.0092  0.1347
    2MOL     C6 2101   2.358   1.806   0.420 -0.8709 -0.0780  0.2677
    2MOL     C7 2102   2.417   1.900   0.505 -0.3781 -0.0313 -0.3992
    2MOL     N3 2103   2.393   1.625   0.261 -0.0216  0.6402 -0.1586
    2MOL     C8 2104   2.407   1.653   0.126  0.0160 -0.0318 -0.3438
    2MOL     C9 2105   2.384   1.531   0.055  0.0875 -0.2249  0.7577
    2MOL    C10 2106   2.369   1.427   0.145  0.0616 -0.6181  0.1210
    2MOL    C11 2107   2.371   1.489   0.283  0.2210  0.9281 -0.0013
    2MOL     O1 2108   2.356   1.430   0.390 -0.0300 -0.2227 -0.1360
    2MOL    C12 2109   2.384   1.505  -0.084 -0.8366  0.0686  0.1461
    2MOL    C13 2110   2.394   1.373  -0.134  0.4891  0.2215 -0.1336
    2MOL    C14 2111   2.392   1.269  -0.037  0.0640  0.1632  0.5407
    2MOL    C15 2112   2.368   1.297   0.102  0.9019 -0.8493 -0.2611
    2MOL    C16 2113   2.550   1.438  -0.321  0.4609 -0.3531 -0.1871
    2MOL    C17 2114   2.664   1.420  -0.237 -0.2401  0.1967 -0.2305
    2MOL    C18 2115   2.772   1.508  -0.250  0.1977 -1.0317 -0.3063
    2MOL    C19 2116   2.551   1.538  -0.422 -0.0553  0.2873  0.1036
    2MOL    C20 2117   2.767   1.609  -0.343  0.1033  0.0675  0.2543
    2MOL    C21 2118   2.662   1.630  -0.427  0.1833 -0.0683 -0.5730
    2MOL    C22 2119   2.419   1.361  -0.287  0.4370  0.2396  0.1827
    2MOL    C23 2120   2.467   1.207  -0.311  0.0296 -0.6096 -0.2637
    2MOL     F1 2121   2.523   1.190  -0.432  0.6868  0.3326  0.3266
    2MOL     F2 2122   2.359   1.120  -0.307 -0.6728  0.1579  0.4700
    2MOL     F3 2123   2.559   1.154  -0.229  0.0254 -0.1544  0.0148
    2MOL    C24 2124   2.291   1.402  -0.373 -0.8050 -0.6641 -0.2577
    2MOL     F4 2125   2.177   1.343  -0.309  0.2605  0.0626 -0.0789
    2MOL     F5 2126   2.302   1.352  -0.497  0.4749  0.2060  0.6105
    2MOL     F6 2127   2.261   1.532  -0.393  0.2489 -0.3657  0.6583
    2MOL     O2 2128   2.449   1.755   0.079  0.5447 -0.1079  0.2028
    2MOL    C25 2129   2.887   1.528  -0.167  0.4567  0.5752  0.2806
    2MOL     N4 2130   2.943   1.650  -0.202  0.2372 -1.1711  0.0521
    2MOL    C26 2131   2.880   1.707  -0.307  0.2161  0.5523  0.1780
    2MOL     O3 2132   2.898   1.820  -0.349  0.1464  0.2155 -0.8702
    2MOL    C27 2133   2.738   1.864   0.740  0.2982  0.8906  0.3092
    2MOL    C28 2134   2.817   1.772   0.673  0.1026  0.2955 -0.2922
    2MOL    C29 2135   2.635   1.823   0.826  0.4857 -0.4561 -0.7218
    2MOL    C30 2136   2.781   1.638   0.679  0.1388 -0.0951 -0.2246
    2MOL    C31 2137   2.601   1.683   0.832  0.1340  0.2241 -0.5357
    2MOL    C32 2138   2.674   1.588   0.758 -0.3059  0.7267  0.5376
    2MOL    C33 2139   2.638   1.453   0.748  0.9261 -0.0884 -0.1521
    2MOL     N5 2140   2.711   1.326   0.753 -0.0677  0.2310  0.4141
    2MOL     N6 2141   2.506   1.420   0.708 -0.0383  0.2496  0.4344
    2MOL    C34 2142   2.620   1.227   0.710  0.1559  0.5716  0.7268
    2MOL    C35 2143   2.504   1.281   0.677  0.0845 -0.4751 -0.6163
    2MOL    C36 2144   2.390   1.516   0.688  0.5097  0.4331 -0.5221
    2MOL     H1 2145   2.324   1.467   0.612 -0.5881  0.2667  1.1311
    2MOL     H2 2146   2.428   1.613   0.669  2.0741 -1.2345 -0.1383
    2MOL     H3 2147   2.335   1.512   0.780  3.5128 -0.1140 -0.9126
    2MOL    C37 2148   2.848   1.309   0.754  0.0954 -0.1382 -0.3640
    2MOL    C38 2149   2.921   1.261   0.864 -0.6228 -0.0785  0.2035
    2MOL    C39 2150   3.061   1.240   0.860 -0.4375  0.0087  0.1638
    2MOL    C40 2151   3.132   1.269   0.736  0.2871 -0.2754 -0.5694
    2MOL    C41 2152   3.060   1.327   0.634 -0.8511 -0.7174  0.3296
    2MOL    C42 2153   2.921   1.346   0.638 -0.1163  0.0503  0.1419
    2MOL    C43 2154   2.396   1.203   0.607 -0.4182  0.1356 -0.1563
    2MOL     F7 2155   2.272   1.266   0.605  0.4425  0.4001  0.2046
    2MOL     F8 2156   2.366   1.084   0.664 -0.2804  0.2573  0.1286
    2MOL     F9 2157   2.425   1.180   0.473  0.0141 -0.2708 -0.1843
    2MOL    C44 2158   2.647   2.141   0.536 -0.0840 -0.2911 -0.3946
    2MOL    C45 2159   2.750   2.196   0.608  0.3911 -0.1314  0.5711
    2MOL    C46 2160   2.812   2.330   0.578 -1.0444  0.3689 -0.7228
    2MOL    F10 2161   2.752   2.405   0.484  0.1800 -0.1607 -0.0452
    2MOL    F11 2162   2.808   2.404   0.693 -0.0904  0.7501 -0.0971
    2MOL     H4 2163   2.602   2.180   0.444 -3.3481  0.7713 -1.2746
    2MOL     H5 2164   2.744   1.818   0.456  0.5811 -0.9423  1.0029
    2MOL     H6 2165   2.639   1.652   0.301  2.4548  0.9789 -0.7846
    2MOL     H7 2166   2.358   1.968   0.559 -0.3855  0.4468  1.7759
    2MOL     H8 2167   2.251   1.795   0.403  0.4578  2.1526  0.8732
    2MOL     H9 2168   2.392   1.589  -0.150  0.8050 -0.5819  1.8983
    2MOL    H10 2169   2.395   1.169  -0.071 -0.2106  1.8650  2.2072
    2MOL    H11 2170   2.375   1.222   0.170  0.4497  3.3075 -1.3043
    2MOL    H12 2171   2.469   1.543  -0.487  1.8894 -4.5113  0.9346
    2MOL    H13 2172   2.644   1.359  -0.145  0.0280  0.3834  0.7372
    2MOL    H14 2173   2.657   1.706  -0.499 -0.0744  3.8500  0.8221
    2MOL     O4 2174   2.918   1.457  -0.078  0.1262  0.6528 -0.1509
    2MOL    H15 2175   2.883   1.810   0.597 -0.1440  1.6514  0.2635
    2MOL    H16 2176   2.824   1.570   0.607  1.7363  0.1124  1.1350
    2MOL    H17 2177   2.571   1.892   0.885  1.1421 -1.3145 -0.4385
    2MOL    H18 2178   3.112   1.214   0.952  2.0993 -2.0750 -2.3398
    2MOL    H19 2179   2.869   1.252   0.958 -2.3594 -1.0605  0.2532
    2MOL    H20 2180   3.117   1.356   0.548 -0.4849  0.9701  2.5716
    2MOL    H21 2181   2.875   1.374   0.549  0.1473 -0.7749  1.5435
    2MOL    H22 2182   2.647   1.122   0.718 -1.6286  1.2797  1.4772
    2MOL    H23 2183   2.526   1.654   0.899 -1.1220  1.0536 -0.1451
    2MOL    F12 2184   2.939   2.312   0.539 -0.3226  0.7648  0.6693
    2MOL    C47 2185   2.907   2.119   0.796 -1.0066 -0.4979 -0.2246
    2MOL    H24 2186   2.891   2.175   0.890  0.8798  0.1052  0.4480
    2MOL    H25 2187   2.995   2.156   0.738 -0.6160 -0.0870 -1.1982
    2MOL    H26 2188   2.920   2.016   0.838 -4.6797  1.3399 -1.1194
    2MOL     N1 2189   3.329   1.036   0.243  0.3335 -0.4839 -0.1012
    2MOL     N2 2190   3.165   1.053   0.079 -0.1578 -0.1174 -0.7169
    2MOL     C1 2191   3.266   1.125   0.153  0.7997  0.2950  0.3765
    2MOL     C2 2192   3.106   1.091  -0.039 -0.4808  0.2110 -1.1759
    2MOL     C3 2193   3.189   1.152  -0.134  0.3002 -0.3564  0.3046
    2MOL     C4 2194   3.127   1.183  -0.257 -0.3881 -0.0962  0.5134
    2MOL     C5 2195   2.987   1.163  -0.277 -1.0282  0.3321  0.0851
    2MOL     C6 2196   2.912   1.102  -0.182  0.4829 -0.6014 -0.4484
    2MOL     C7 2197   2.970   1.069  -0.065  0.3667 -0.3192  0.0480
    2MOL     N3 2198   2.930   1.200  -0.402 -0.4292  0.2243 -0.6186
    2MOL     C8 2199   2.856   1.119  -0.479 -0.1756  0.4001 -0.6929
    2MOL     C9 2200   2.810   1.199  -0.596  0.0590  0.3343 -0.4815
    2MOL    C10 2201   2.869   1.320  -0.582  0.2895 -0.0383 -0.9420
    2MOL    C11 2202   2.953   1.320  -0.457 -0.0530 -0.6187  0.3671
    2MOL     O1 2203   3.012   1.418  -0.418 -0.1508  0.4420  0.1523
    2MOL    C12 2204   2.718   1.168  -0.695  0.1808  0.7768 -0.4235
    2MOL    C13 2205   2.690   1.263  -0.798 -0.0494  0.9705  0.1035
    2MOL    C14 2206   2.762   1.384  -0.787 -0.0819 -0.1488  0.6676
    2MOL    C15 2207   2.850   1.418  -0.678  0.0842  0.4188 -0.5226
    2MOL    C16 2208   2.606   1.319  -1.031  0.2353  0.3150  0.3015
    2MOL    C17 2209   2.527   1.435  -1.061  0.2918  0.3527  0.3922
    2MOL    C18 2210   2.577   1.527  -1.156  0.0470 -0.4642 -0.6914
    2MOL    C19 2211   2.716   1.289  -1.115 -0.4999 -0.0775 -0.9044
    2MOL    C20 2212   2.672   1.491  -1.244  0.5306  0.2093  0.0367
    2MOL    C21 2213   2.753   1.375  -1.223 -0.4299  0.2330  0.4360
    2MOL    C22 2214   2.584   1.234  -0.905 -0.3340  0.2699 -0.1412
    2MOL    C23 2215   2.578   1.080  -0.942  0.5162  0.1889 -0.1635
    2MOL     F1 2216   2.500   1.065  -1.052  0.8700  0.2795  0.3716
    2MOL     F2 2217   2.530   1.000  -0.853 -0.4097 -0.0654  0.2676
    2MOL     F3 2218   2.690   1.025  -0.984 -0.9919  0.4421 -0.5025
    2MOL    C24 2219   2.442   1.263  -0.838  0.4584 -0.0295 -0.1748
    2MOL     F4 2220   2.420   1.184  -0.732 -0.0700 -0.0171 -0.1343
    2MOL     F5 2221   2.338   1.246  -0.923  0.1301 -0.0726 -0.0020
    2MOL     F6 2222   2.439   1.386  -0.787 -0.1983  0.0275 -0.1398
    2MOL     O2 2223   2.835   1.000  -0.456  0.3962 -0.5192  0.2489
    2MOL    C25 2224   2.529   1.654  -1.199  0.5775 -0.8737 -0.0968
    2MOL     N4 2225   2.612   1.697  -1.305  0.1252 -0.1302  0.2475
    2MOL    C26 2226   2.699   1.599  -1.339  0.0467  0.2802  0.3070
    2MOL     O3 2227   2.784   1.606  -1.423 -0.1008  0.1532 -0.2321
    2MOL    C27 2228   3.286   1.262   0.153 -0.4193  0.4306  0.2749
    2MOL    C28 2229   3.386   1.313   0.070  0.1634  0.6637 -0.0012
    2MOL    C29 2230   3.236   1.348   0.257  0.2150  0.7243  0.5140
    2MOL    C30 2231   3.422   1.452   0.079  0.9762  0.6874 -0.2257
    2MOL    C31 2232   3.282   1.478   0.269  0.5184  0.2146 -0.4425
    2MOL    C32 2233   3.374   1.533   0.183  0.2339 -0.3948 -0.7367
    2MOL    C33 2234   3.426   1.663   0.201  0.4219  0.1072  0.5936
    2MOL     N5 2235   3.356   1.782   0.165 -0.5254 -0.4684 -0.1308
    2MOL     N6 2236   3.555   1.703   0.257 -0.5362  0.5467 -0.3413
    2MOL    C34 2237   3.438   1.879   0.209  0.1101  0.0675 -0.0578
    2MOL    C35 2238   3.553   1.841   0.260 -0.1506  0.0447 -0.0245
    2MOL    C36 2239   3.681   1.627   0.230 -0.1244 -0.9324 -0.2819
    2MOL     H1 2240   3.765   1.671   0.294  2.2304 -1.0063 -2.0913
    2MOL     H2 2241   3.704   1.656   0.128  2.0109 -1.1577  1.2107
    2MOL     H3 2242   3.660   1.523   0.247  3.8175 -1.9050  1.6168
    2MOL    C37 2243   3.247   1.779   0.074 -0.5478 -0.1229  0.1490
    2MOL    C38 2244   3.263   1.806  -0.068  0.1296 -0.5656 -0.4800
    2MOL    C39 2245   3.164   1.759  -0.157 -0.0623  0.6084  0.2649
    2MOL    C40 2246   3.042   1.708  -0.111 -0.0179  0.3917  0.0080
    2MOL    C41 2247   3.017   1.701   0.032 -0.8910  0.0975  0.4006
    2MOL    C42 2248   3.118   1.738   0.121 -0.1136  0.7432  0.0928
    2MOL    C43 2249   3.669   1.935   0.294 -0.4969 -0.2140 -0.3388
    2MOL     F7 2250   3.785   1.869   0.337  0.4368 -0.3246 -0.1162
    2MOL     F8 2251   3.618   2.019   0.392  0.1537  0.6240  0.3585
    2MOL     F9 2252   3.701   2.017   0.192 -0.5201 -0.1441  0.0077
    2MOL    C44 2253   3.169   0.923   0.143  0.2117 -0.4208  0.3223
    2MOL    C45 2254   3.259   0.918   0.243 -0.5575 -0.2609 -0.1857
    2MOL    C46 2255   3.293   0.806   0.337 -0.0261 -0.0505 -1.2694
    2MOL    F10 2256   3.400   0.747   0.279  0.0095  0.0244 -0.1442
    2MOL    F11 2257   3.330   0.839   0.463 -0.0445  0.5428 -0.2743
    2MOL     H4 2258   3.100   0.848   0.108 -0.9170  0.2010  1.2182
    2MOL     H5 2259   3.298   1.169  -0.121  1.4709  1.3462 -0.1961
    2MOL     H6 2260   3.186   1.222  -0.341 -0.2155  1.8847  0.1612
    2MOL     H7 2261   2.908   1.028   0.012 -3.4101  2.5560 -2.1042
    2MOL     H8 2262   2.805   1.100  -0.199  1.6894 -0.5889 -3.0302
    2MOL     H9 2263   2.662   1.081  -0.666 -1.3603 -1.9078 -0.1774
    2MOL    H10 2264   2.744   1.460  -0.864  1.9393 -1.6782 -0.7827
    2MOL    H11 2265   2.899   1.509  -0.666  0.8439 -2.4360 -2.3363
    2MOL    H12 2266   2.785   1.208  -1.089  2.8022  0.0282 -0.5500
    2MOL    H13 2267   2.439   1.464  -1.002  3.1257  1.0763  0.5874
    2MOL    H14 2268   2.834   1.346  -1.286  1.6513 -1.8018 -0.3534
    2MOL     O4 2269   2.430   1.707  -1.152  0.1416  0.0092  0.2145
    2MOL    H15 2270   3.434   1.248  -0.003 -1.9733 -0.2272  0.1474
    2MOL    H16 2271   3.491   1.491  -0.001  1.5200 -0.4730 -0.8077
    2MOL    H17 2272   3.172   1.315   0.339  0.7077 -1.5629 -3.3632
    2MOL    H18 2273   3.176   1.774  -0.269  0.3311  1.8807 -1.4522
    2MOL    H19 2274   3.356   1.850  -0.099 -2.2154  2.4299  0.2433
    2MOL    H20 2275   2.923   1.665   0.075  2.5342  1.8882  0.9043
    2MOL    H21 2276   3.096   1.746   0.232  1.3130  1.2425  0.2126
    2MOL    H22 2277   3.424   1.980   0.185  1.1836  0.5649  1.1239
    2MOL    H23 2278   3.231   1.541   0.340 -1.7924  2.4606 -0.6545
    2MOL    F12 2279   3.198   0.712   0.342 -0.2250  0.1196 -0.0580
    2MOL    C47 2280   3.467   1.063   0.286 -0.7715  0.1123 -0.2602
    2MOL    H24 2281   3.534   0.978   0.271 -1.7768  0.1778 -1.1554
    2MOL    H25 2282   3.479   1.090   0.390 -0.1038  0.8941  0.8701
    2MOL    H26 2283   3.500   1.151   0.216  0.2105  5.1887  1.9004
    2MOL     N1 2284   2.004   1.639  -1.602 -0.3159  0.4651 -0.2025
    2MOL     N2 2285   1.871   1.774  -1.461 -0.6174  0.4289  0.3262
    2MOL     C1 2286   1.970   1.775  -1.567  0.1913  0.2803  0.4116
    2MOL     C2 2287   1.774   1.868  -1.432 -0.1238 -0.1982  0.2093
    2MOL     C3 2288   1.800   2.009  -1.440 -0.0984 -0.5055 -1.0201
    2MOL     C4 2289   1.693   2.097  -1.420 -0.2465 -0.2429 -0.0412
    2MOL     C5 2290   1.557   2.052  -1.406  0.3220  0.1135  0.4244
    2MOL     C6 2291   1.530   1.909  -1.408  0.5670 -0.7962  0.3295
    2MOL     C7 2292   1.642   1.821  -1.412  0.3385 -0.5545 -0.3083
    2MOL     N3 2293   1.460   2.146  -1.369  0.2437  0.4039 -0.7059
    2MOL     C8 2294   1.453   2.180  -1.238  0.5667  0.1368  0.2425
    2MOL     C9 2295   1.378   2.309  -1.236  0.0557  0.4454  0.7485
    2MOL    C10 2296   1.336   2.338  -1.364 -0.0506 -0.2161 -0.2281
    2MOL    C11 2297   1.393   2.229  -1.454 -0.0267 -0.5403 -0.0172
    2MOL     O1 2298   1.387   2.207  -1.576 -0.1261 -0.0038 -0.0795
    2MOL    C12 2299   1.349   2.398  -1.131  0.6818  0.4407 -0.4359
    2MOL    C13 2300   1.282   2.521  -1.156 -0.2114  0.2295  0.3394
    2MOL    C14 2301   1.246   2.545  -1.287  0.4691 -0.6493 -0.1582
    2MOL    C15 2302   1.267   2.457  -1.397 -0.0957  0.6435 -0.2350
    2MOL    C16 2303   1.423   2.658  -1.006 -0.0997  0.2205 -0.3829
    2MOL    C17 2304   1.524   2.674  -1.105 -0.2347  0.3172  0.0772
    2MOL    C18 2305   1.652   2.720  -1.078  0.3837  0.3189 -0.1199
    2MOL    C19 2306   1.458   2.702  -0.879 -0.6092 -0.4101 -0.5811
    2MOL    C20 2307   1.683   2.768  -0.950  0.1596 -0.9091 -0.0148
    2MOL    C21 2308   1.589   2.748  -0.844  0.2169  0.6637 -0.1689
    2MOL    C22 2309   1.275   2.624  -1.044 -0.6048  0.3411 -0.1376
    2MOL    C23 2310   1.209   2.760  -1.086 -0.2986  0.1646 -0.0428
    2MOL     F1 2311   1.224   2.844  -0.986  0.0177 -0.6238 -0.0664
    2MOL     F2 2312   1.078   2.736  -1.112  0.5831 -0.1814  0.2885
    2MOL     F3 2313   1.261   2.811  -1.198 -0.1064 -0.3634 -0.6163
    2MOL    C24 2314   1.197   2.562  -0.922  0.3328 -0.3170  0.2755
    2MOL     F4 2315   1.086   2.508  -0.974 -0.1613  0.0297 -0.1603
    2MOL     F5 2316   1.151   2.648  -0.830 -0.2789 -0.1036  0.7218
    2MOL     F6 2317   1.262   2.470  -0.841  0.3404 -0.0784 -0.4504
    2MOL     O2 2318   1.494   2.115  -1.143  0.5449  0.2763  0.5611
    2MOL    C25 2319   1.778   2.710  -1.147 -0.6343  0.5892 -0.5103
    2MOL     N4 2320   1.875   2.765  -1.069  0.6265 -0.6980  0.4648
    2MOL    C26 2321   1.827   2.799  -0.948 -0.9725  0.0643 -0.0104
    2MOL     O3 2322   1.892   2.827  -0.847  0.3684 -0.5259  0.4533
    2MOL    C27 2323   2.057   1.885  -1.587 -0.0433 -0.5534  0.1190
    2MOL    C28 2324   2.101   1.953  -1.475 -0.5629 -0.4641  0.7432
    2MOL    C29 2325   2.100   1.934  -1.714  0.3178 -0.9036  0.2937
    2MOL    C30 2326   2.183   2.061  -1.486 -0.0119 -0.2098  0.7645
    2MOL    C31 2327   2.191   2.044  -1.727 -0.0252  0.4286 -0.9166
    2MOL    C32 2328   2.230   2.108  -1.609  0.4634  0.9463  0.4177
    2MOL    C33 2329   2.336   2.201  -1.609  0.4472  0.3935 -0.3837
    2MOL     N5 2330   2.459   2.179  -1.542 -0.2896  0.6763 -0.2834
    2MOL     N6 2331   2.353   2.320  -1.689 -0.6432 -0.1136 -0.6718
    2MOL    C34 2332   2.534   2.298  -1.556  0.4913 -0.0335  0.2280
    2MOL    C35 2333   2.480   2.378  -1.643  0.3959 -0.0578  0.5375
    2MOL    C36 2334   2.265   2.371  -1.789  0.5056  0.8256  0.5840
    2MOL     H1 2335   2.310   2.473  -1.817  0.7926  0.6398 -0.7545
    2MOL     H2 2336   2.168   2.394  -1.749  0.4918 -1.4946  1.3509
    2MOL     H3 2337   2.264   2.302  -1.870 -2.1798  1.5197  2.3237
    2MOL    C37 2338   2.508   2.058  -1.487 -0.1516 -0.1679  0.3038
    2MOL    C38 2339   2.557   2.055  -1.355  0.2004 -0.2252  1.2158
    2MOL    C39 2340   2.595   1.933  -1.304 -0.1501 -0.2157  0.0302
    2MOL    C40 2341   2.583   1.812  -1.371  0.3653 -0.1304  0.3430
    2MOL    C41 2342   2.524   1.812  -1.505 -0.0740  0.5727  0.4841
    2MOL    C42 2343   2.497   1.939  -1.560  0.2101 -0.1272  0.3934
    2MOL    C43 2344   2.560   2.488  -1.710 -0.2224  0.0240  0.4912
    2MOL     F7 2345   2.528   2.512  -1.841 -0.3277  0.1821 -0.5520
    2MOL     F8 2346   2.697   2.465  -1.709  0.4344  0.6542  0.1141
    2MOL     F9 2347   2.546   2.602  -1.639  0.1828 -0.0593 -0.3170
    2MOL    C44 2348   1.860   1.642  -1.423  0.0063 -0.2012  0.5359
    2MOL    C45 2349   1.924   1.566  -1.505  0.1388  0.2886  0.5783
    2MOL    C46 2350   1.932   1.413  -1.509  0.6146  0.2063  0.2688
    2MOL    F10 2351   1.842   1.362  -1.413 -0.6664  0.1167 -0.2886
    2MOL    F11 2352   1.879   1.374  -1.632 -0.0926 -0.1819  0.1274
    2MOL     H4 2353   1.787   1.607  -1.359  0.7902  0.0450 -2.7670
    2MOL     H5 2354   1.899   2.049  -1.462 -2.0294 -0.2243 -3.0314
    2MOL     H6 2355   1.714   2.203  -1.425 -0.5734 -1.3180  0.0429
    2MOL     H7 2356   1.629   1.716  -1.418  0.9320 -3.1563  1.0893
    2MOL     H8 2357   1.422   1.864  -1.401 -1.6220 -0.5133  1.1460
    2MOL     H9 2358   1.383   2.367  -1.029 -0.3473 -3.2108 -2.8799
    2MOL    H10 2359   1.200   2.637  -1.313 -0.6575 -2.6052 -0.1205
    2MOL    H11 2360   1.244   2.487  -1.498  1.6253  0.7711 -1.6339
    2MOL    H12 2361   1.384   2.687  -0.802  1.1488 -0.8890  1.3923
    2MOL    H13 2362   1.494   2.660  -1.212  1.9889 -0.4285 -1.3810
    2MOL    H14 2363   1.612   2.767  -0.738 -0.1259 -0.1049 -2.0974
    2MOL     O4 2364   1.796   2.658  -1.256 -0.0538  0.5142  0.0062
    2MOL    H15 2365   2.053   1.934  -1.376 -0.6070  0.5235 -1.3201
    2MOL    H16 2366   2.211   2.111  -1.396 -1.0730 -1.1035  0.6907
    2MOL    H17 2367   2.065   1.894  -1.814 -2.1811  0.9467  1.3469
    2MOL    H18 2368   2.631   1.931  -1.201  2.0805  0.4962  1.6698
    2MOL    H19 2369   2.567   2.142  -1.287  0.5841  1.7275  2.3520
    2MOL    H20 2370   2.515   1.717  -1.563 -1.9018 -1.7087 -0.7445
    2MOL    H21 2371   2.468   1.940  -1.666  1.9635 -1.4761 -0.5997
    2MOL    H22 2372   2.633   2.303  -1.515 -0.4808  0.6257  1.7417
    2MOL    H23 2373   2.224   2.088  -1.824  2.0800 -1.3278 -1.7538
    2MOL    F12 2374   2.049   1.361  -1.484  0.1270 -0.7281 -0.0135
    2MOL    C47 2375   2.133   1.601  -1.647 -0.5589  0.9143 -0.0446
    2MOL    H24 2376   2.136   1.559  -1.752 -2.2689 -3.4446  2.2602
    2MOL    H25 2377   2.182   1.528  -1.583 -2.3795  2.0967  0.8640
    2MOL    H26 2378   2.199   1.689  -1.631  0.5324 -0.7474 -0.6116
    2MOL     N1 2379   2.296   2.151  -1.119  0.3806  0.0079 -0.3253
    2MOL     N2 2380   2.460   2.144  -0.953 -0.1510 -0.4228  0.3306
    2MOL     C1 2381   2.417   2.218  -1.070  0.4084 -1.0578 -0.2020
    2MOL     C2 2382   2.566   2.177  -0.865 -0.6871  0.3699  0.2259
    2MOL     C3 2383   2.680   2.249  -0.919  0.3859  0.3896  0.1280
    2MOL     C4 2384   2.775   2.301  -0.832  0.5892  0.7241  0.1469
    2MOL     C5 2385   2.774   2.276  -0.694  0.1823  0.1520 -0.0244
    2MOL     C6 2386   2.667   2.199  -0.639  0.5301 -0.3294 -0.1134
    2MOL     C7 2387   2.557   2.153  -0.727 -1.0877 -0.8693 -0.0936
    2MOL     N3 2388   2.873   2.330  -0.609  1.0181 -0.1972  0.5378
    2MOL     C8 2389   2.845   2.424  -0.510 -0.5513  0.2245  0.0695
    2MOL     C9 2390   2.969   2.505  -0.483  0.3639  0.1812  0.0011
    2MOL    C10 2391   3.069   2.446  -0.556 -0.2457 -0.3213  0.6205
    2MOL    C11 2392   3.009   2.333  -0.636 -0.0861  0.1965 -0.6068
    2MOL     O1 2393   3.068   2.259  -0.719 -0.6958 -0.0235 -0.2452
    2MOL    C12 2394   2.992   2.624  -0.417 -0.1154 -0.1290 -0.1217
    2MOL    C13 2395   3.118   2.684  -0.413 -0.0092  0.0520 -0.4149
    2MOL    C14 2396   3.224   2.617  -0.484  0.4888  0.2792  0.1438
    2MOL    C15 2397   3.200   2.499  -0.556  0.4506 -0.7247 -0.2785
    2MOL    C16 2398   3.028   2.919  -0.397  0.3452  0.2095 -0.6270
    2MOL    C17 2399   3.024   2.944  -0.540 -0.1616  0.3510  0.5303
    2MOL    C18 2400   2.931   3.035  -0.591  1.0124 -0.0440 -0.4106
    2MOL    C19 2401   2.929   2.981  -0.314  0.5572 -0.5676 -0.0044
    2MOL    C20 2402   2.834   3.095  -0.509  0.1159 -0.2972  0.4230
    2MOL    C21 2403   2.836   3.077  -0.370  0.1279 -0.2322  0.1742
    2MOL    C22 2404   3.138   2.822  -0.341 -0.2537  0.3568 -0.2914
    2MOL    C23 2405   3.130   2.790  -0.183 -0.0728 -0.1930  0.3017
    2MOL     F1 2406   3.011   2.735  -0.158 -0.6491  0.7109  0.8977
    2MOL     F2 2407   3.139   2.908  -0.113 -0.0104 -0.2472  0.0258
    2MOL     F3 2408   3.228   2.702  -0.134  0.6929  0.0558 -0.9660
    2MOL    C24 2409   3.283   2.892  -0.372 -0.0990 -0.3997 -0.0428
    2MOL     F4 2410   3.298   3.002  -0.299 -0.5686  0.7159  0.2927
    2MOL     F5 2411   3.296   2.925  -0.504  0.0039 -0.2369 -0.2041
    2MOL     F6 2412   3.386   2.817  -0.330  0.0163  0.3541 -0.1335
    2MOL     O2 2413   2.746   2.440  -0.445  0.2279  0.4968  0.7790
    2MOL    C25 2414   2.903   3.090  -0.726 -0.7309  0.1487  0.4311
    2MOL     N4 2415   2.791   3.180  -0.723  0.8532  0.2721 -1.1068
    2MOL    C26 2416   2.748   3.186  -0.593  0.8151  0.9465  0.4095
    2MOL     O3 2417   2.659   3.263  -0.556 -0.2605  0.3635 -0.1431
    2MOL    C27 2418   2.451   2.347  -1.116  0.1936 -0.4578 -0.7071
    2MOL    C28 2419   2.480   2.379  -1.249  0.2227  0.7795 -0.0058
    2MOL    C29 2420   2.425   2.451  -1.031  0.2930  0.5000 -0.1880
    2MOL    C30 2421   2.507   2.509  -1.286 -0.0020 -0.9933  0.0326
    2MOL    C31 2422   2.453   2.584  -1.067  0.0508 -0.5472  0.1124
    2MOL    C32 2423   2.500   2.612  -1.195 -0.0436  1.1241 -0.0097
    2MOL    C33 2424   2.511   2.741  -1.235 -0.4847 -0.4444  0.5888
    2MOL     N5 2425   2.408   2.838  -1.227 -0.2836  0.4399  0.3472
    2MOL     N6 2426   2.636   2.803  -1.254 -0.1982 -1.1016 -0.7087
    2MOL    C34 2427   2.487   2.957  -1.232  0.1067  0.3314 -0.1207
    2MOL    C35 2428   2.612   2.934  -1.232 -0.0337 -0.0396 -0.5138
    2MOL    C36 2429   2.764   2.742  -1.210 -0.0136  0.4705 -0.1632
    2MOL     H1 2430   2.849   2.781  -1.271 -3.7655  1.5515 -0.2164
    2MOL     H2 2431   2.751   2.634  -1.217 -0.0177  2.2899 -1.1862
    2MOL     H3 2432   2.776   2.778  -1.106  2.5849  1.6941 -1.1799
    2MOL    C37 2433   2.273   2.827  -1.191 -0.4425  0.0174 -0.1162
    2MOL    C38 2434   2.201   2.924  -1.115 -0.0241 -1.0701 -0.0121
    2MOL    C39 2435   2.069   2.907  -1.093  0.2485 -0.5419  0.2642
    2MOL    C40 2436   2.010   2.779  -1.109 -0.6346  0.3410  0.1061
    2MOL    C41 2437   2.076   2.681  -1.181 -0.0585 -0.2006  0.1516
    2MOL    C42 2438   2.206   2.704  -1.223  0.3157 -0.0158 -0.0412
    2MOL    C43 2439   2.719   3.042  -1.227  0.2702  0.3162 -0.7554
    2MOL     F7 2440   2.828   3.005  -1.292  0.0520 -0.2359  0.1847
    2MOL     F8 2441   2.753   3.074  -1.100 -0.2287 -0.1412  0.3472
    2MOL     F9 2442   2.679   3.161  -1.277  0.4567  0.0660  0.5108
    2MOL    C44 2443   2.375   2.031  -0.950  0.1837 -0.1423 -0.1459
    2MOL    C45 2444   2.274   2.035  -1.038 -0.1432  0.0821  0.0141
    2MOL    C46 2445   2.159   1.943  -1.058 -0.3404 -0.1211 -0.3235
    2MOL    F10 2446   2.121   1.938  -1.184 -0.2138 -0.3154  0.2792
    2MOL    F11 2447   2.184   1.818  -1.019  0.2192  0.2235 -0.0979
    2MOL     H4 2448   2.394   1.963  -0.869  1.2174  0.8061 -2.3270
    2MOL     H5 2449   2.683   2.281  -1.025  0.2133  1.6603  1.1061
    2MOL     H6 2450   2.842   2.369  -0.867 -1.1976 -2.3550  1.2832
    2MOL     H7 2451   2.464   2.115  -0.682  1.3889  1.9784  0.4543
    2MOL     H8 2452   2.670   2.176  -0.534 -0.4375 -1.7222  0.5786
    2MOL     H9 2453   2.899   2.664  -0.378  0.0417 -1.5028  0.5280
    2MOL    H10 2454   3.317   2.675  -0.497 -0.0798 -1.9086  0.4968
    2MOL    H11 2455   3.279   2.447  -0.606 -1.4993 -0.4362  0.0746
    2MOL    H12 2456   2.927   2.967  -0.202 -1.4228  3.9933  0.0498
    2MOL    H13 2457   3.092   2.886  -0.606  1.3137 -1.0744  1.1113
    2MOL    H14 2458   2.765   3.137  -0.312  3.3217  1.3297 -1.2155
    2MOL     O4 2459   2.951   3.047  -0.834  0.0831 -0.2971  0.3885
    2MOL    H15 2460   2.475   2.302  -1.327 -0.2059 -0.0691  1.1790
    2MOL    H16 2461   2.527   2.534  -1.386  0.9675  2.0518 -0.9814
    2MOL    H17 2462   2.394   2.416  -0.932 -0.4599 -2.7081  2.5339
    2MOL    H18 2463   2.013   2.998  -1.051 -2.2637  1.2868  0.8476
    2MOL    H19 2464   2.248   3.022  -1.094  1.2043  0.6870 -2.8101
    2MOL    H20 2465   2.031   2.583  -1.203 -1.6044 -0.2154  1.9109
    2MOL    H21 2466   2.260   2.625  -1.279  1.3324 -1.6088 -0.2334
    2MOL    H22 2467   2.445   3.055  -1.204 -3.6201 -1.1046  0.7936
    2MOL    H23 2468   2.426   2.668  -1.006 -1.8009 -1.6198  0.7496
    2MOL    F12 2469   2.042   1.985  -1.009  0.2848  0.2214  0.0226
    2MOL    C47 2470   2.182   2.230  -1.170 -0.5313 -0.8666  0.2659
    2MOL    H24 2471   2.137   2.279  -1.082 -1.2452 -0.7610  0.1658
    2MOL    H25 2472   2.095   2.180  -1.215 -2.3220 -0.4734  0.2538
    2MOL    H26 2473   2.222   2.308  -1.230 -0.3697  0.7691  2.1009
    2MOL     N1 2474   2.281   2.951  -1.588 -0.0241  0.1106 -0.8477
    2MOL     N2 2475   2.076   3.022  -1.511 -0.1939 -0.2753 -0.1463
    2MOL     C1 2476   2.218   3.043  -1.502 -0.3567 -0.3991 -0.4028
    2MOL     C2 2477   1.978   3.056  -1.419 -0.8047  0.2635  0.5469
    2MOL     C3 2478   1.977   3.188  -1.364  0.7702  0.3511 -0.0581
    2MOL     C4 2479   1.872   3.214  -1.269 -0.5586 -0.2445 -0.7401
    2MOL     C5 2480   1.781   3.116  -1.223 -1.1281  0.3454  0.3584
    2MOL     C6 2481   1.771   2.997  -1.298 -0.3140 -0.0599  0.0191
    2MOL     C7 2482   1.875   2.965  -1.393 -0.2998  0.3173  0.1078
    2MOL     N3 2483   1.681   3.151  -1.123  0.0277 -0.7157 -0.4691
    2MOL     C8 2484   1.548   3.096  -1.118  0.4827 -0.1259  0.3663
    2MOL     C9 2485   1.488   3.149  -0.991  0.0646 -0.2727 -0.1754
    2MOL    C10 2486   1.584   3.235  -0.938 -0.5259 -0.4574 -0.1674
    2MOL    C11 2487   1.710   3.237  -1.016  0.0152  0.1899  0.0395
    2MOL     O1 2488   1.813   3.297  -0.992  0.0330  0.2328 -0.3769
    2MOL    C12 2489   1.357   3.133  -0.936 -0.1185  0.6197 -0.0032
    2MOL    C13 2490   1.318   3.221  -0.834  0.0167  0.2852 -1.2685
    2MOL    C14 2491   1.413   3.312  -0.778 -0.2752  0.5255  0.2532
    2MOL    C15 2492   1.547   3.319  -0.831  0.3202 -0.1374 -0.2793
    2MOL    C16 2493   1.187   3.249  -0.633  0.4890  0.2319  0.3132
    2MOL    C17 2494   1.119   3.351  -0.559 -0.1371 -0.2421  0.4897
    2MOL    C18 2495   1.143   3.359  -0.419  1.1529 -0.0247 -0.0932
    2MOL    C19 2496   1.266   3.155  -0.567 -0.0377  0.5912  0.0485
    2MOL    C20 2497   1.219   3.264  -0.351 -0.2787  0.1473  0.6280
    2MOL    C21 2498   1.292   3.167  -0.424  0.8172 -0.0736  0.5584
    2MOL    C22 2499   1.171   3.225  -0.784 -0.4733  0.7000 -0.4259
    2MOL    C23 2500   1.109   3.342  -0.860 -0.2939  0.0410 -0.1267
    2MOL     F1 2501   1.123   3.315  -0.996  0.1017 -0.2649  0.0599
    2MOL     F2 2502   1.178   3.459  -0.843 -0.4120 -0.3049  0.0517
    2MOL     F3 2503   0.978   3.365  -0.831  0.0985  0.2505  0.1837
    2MOL    C24 2504   1.084   3.086  -0.793 -0.2820  0.3500 -0.3160
    2MOL     F4 2505   0.963   3.101  -0.739 -0.3002 -0.3161  0.1337
    2MOL     F5 2506   1.140   2.980  -0.738  0.0253 -0.0933 -0.1721
    2MOL     F6 2507   1.064   3.060  -0.924 -0.4865 -0.3111  0.3029
    2MOL     O2 2508   1.499   3.013  -1.196 -0.7251 -0.3924 -0.2660
    2MOL    C25 2509   1.105   3.454  -0.314 -0.3307  0.3741  0.2457
    2MOL     N4 2510   1.165   3.419  -0.189  0.7832 -0.6969  0.4544
    2MOL    C26 2511   1.228   3.299  -0.206 -0.0628  0.2406 -0.5617
    2MOL     O3 2512   1.288   3.243  -0.116  0.2311  0.1073 -0.1306
    2MOL    C27 2513   2.298   3.141  -1.434  0.2976  0.1277 -0.4794
    2MOL    C28 2514   2.267   3.178  -1.305 -0.3898  0.6842  0.4228
    2MOL    C29 2515   2.400   3.208  -1.500  0.0726 -1.3314  0.6162
    2MOL    C30 2516   2.327   3.290  -1.248 -0.3478  0.0470  0.4996
    2MOL    C31 2517   2.474   3.310  -1.440 -1.0038  0.2142 -0.2435
    2MOL    C32 2518   2.436   3.352  -1.308 -0.6702 -0.1901  0.1056
    2MOL    C33 2519   2.486   3.469  -1.249  0.2301 -0.2861  0.2676
    2MOL     N5 2520   2.546   3.499  -1.120 -0.7007 -0.2562 -0.0006
    2MOL     N6 2521   2.496   3.592  -1.326  0.0739  0.4996 -0.4748
    2MOL    C34 2522   2.564   3.638  -1.118 -1.0132 -0.2270  0.6811
    2MOL    C35 2523   2.538   3.685  -1.239  0.0379 -0.2189 -0.1490
    2MOL    C36 2524   2.404   3.630  -1.441 -0.5886 -0.1957 -0.2214
    2MOL     H1 2525   2.448   3.708  -1.503 -2.6265  0.2635 -0.2407
    2MOL     H2 2526   2.312   3.661  -1.395  0.2528 -0.9892  1.7451
    2MOL     H3 2527   2.378   3.539  -1.499 -1.8548 -0.9689 -0.8333
    2MOL    C37 2528   2.603   3.410  -1.027 -0.0129  0.1656 -0.4073
    2MOL    C38 2529   2.745   3.407  -1.011  0.1076  0.1546  0.3905
    2MOL    C39 2530   2.811   3.327  -0.919 -0.3051 -0.4524  0.4021
    2MOL    C40 2531   2.734   3.250  -0.833 -0.2214 -0.1403  0.5792
    2MOL    C41 2532   2.594   3.242  -0.857 -0.2061  0.0171 -0.9614
    2MOL    C42 2533   2.528   3.325  -0.948  0.1855  0.8828 -0.2456
    2MOL    C43 2534   2.546   3.838  -1.267 -0.2494  0.1296 -0.7375
    2MOL     F7 2535   2.544   3.875  -1.397 -0.4699 -0.0983 -0.5109
    2MOL     F8 2536   2.653   3.898  -1.201  0.0939 -0.0107  0.8381
    2MOL     F9 2537   2.439   3.880  -1.204  0.1480  0.3243  0.0372
    2MOL    C44 2538   2.064   2.921  -1.607  0.1058 -0.2223  0.2063
    2MOL    C45 2539   2.179   2.881  -1.652 -0.5094  0.1057  0.2603
    2MOL    C46 2540   2.209   2.762  -1.745  0.1725  0.7266 -0.3217
    2MOL    F10 2541   2.263   2.662  -1.676 -0.2213  0.1000  0.0147
    2MOL    F11 2542   2.095   2.718  -1.802  0.0106  0.0816 -0.5827
    2MOL     H4 2543   1.969   2.880  -1.639 -0.5635 -1.3705 -0.7360
    2MOL     H5 2544   2.059   3.255  -1.391 -1.4292 -2.8634  0.4872
    2MOL     H6 2545   1.869   3.316  -1.239  1.0564  1.9571 -3.3411
    2MOL     H7 2546   1.874   2.871  -1.449 -0.7147  1.0599  2.8272
    2MOL     H8 2547   1.695   2.918  -1.274  0.8994 -1.3831 -1.1832
    2MOL     H9 2548   1.279   3.075  -0.983  0.2932 -1.9774  0.7628
    2MOL    H10 2549   1.386   3.389  -0.701  0.6192  2.2611  1.0220
    2MOL    H11 2550   1.612   3.399  -0.802  1.2375 -2.3565 -1.8548
    2MOL    H12 2551   1.322   3.077  -0.616  0.2561  0.5204  2.6435
    2MOL    H13 2552   1.050   3.426  -0.605 -0.4238 -3.5597 -0.7863
    2MOL    H14 2553   1.363   3.099  -0.375  1.9193 -2.3254 -0.8847
    2MOL     O4 2554   1.030   3.548  -0.335 -0.1477 -0.2495 -0.4132
    2MOL    H15 2555   2.191   3.119  -1.253 -1.0414 -0.6026  3.3784
    2MOL    H16 2556   2.298   3.321  -1.147  0.9187  0.9956 -0.2467
    2MOL    H17 2557   2.425   3.183  -1.603 -1.0758  0.4670 -1.5978
    2MOL    H18 2558   2.916   3.320  -0.902 -3.1179  0.5445  1.1093
    2MOL    H19 2559   2.807   3.455  -1.084 -1.6809 -1.1648 -1.3121
    2MOL    H20 2560   2.543   3.170  -0.798  0.3333  0.6063  2.4221
    2MOL    H21 2561   2.416   3.326  -0.949  1.0023 -0.2609  0.6255
    2MOL    H22 2562   2.604   3.690  -1.030  1.2620 -1.0764  2.1451
    2MOL    H23 2563   2.558   3.359  -1.484 -2.2058  0.9807 -2.3217
    2MOL    F12 2564   2.294   2.781  -1.848 -0.4141 -0.3854  0.1922
    2MOL    C47 2565   2.403   2.885  -1.559 -0.8427 -0.0732 -0.3625
    2MOL    H24 2566   2.446   2.856  -1.657 -0.8210  1.2999  0.7261
    2MOL    H25 2567   2.393   2.796  -1.497 -0.4142 -2.8130  0.5906
    2MOL    H26 2568   2.474   2.948  -1.504 -0.7810 -1.8274  2.3942
    2MOL     N1 2569   1.641   3.459  -0.026  0.1492 -0.4955 -0.9741
    2MOL     N2 2570   1.841   3.494   0.063 -0.1456 -0.8021 -0.6385
    2MOL     C1 2571   1.701   3.509   0.085 -0.2665 -0.0317  0.1286
    2MOL     C2 2572   1.936   3.512   0.163  0.0842  0.7689  0.7684
    2MOL     C3 2573   2.066   3.468   0.141 -0.6819 -0.1556 -0.5890
    2MOL     C4 2574   2.159   3.490   0.241  0.1694  0.6182 -0.2100
    2MOL     C5 2575   2.127   3.548   0.360  0.0528  0.3193 -0.3921
    2MOL     C6 2576   1.998   3.594   0.385  0.4878  0.6966 -0.4247
    2MOL     C7 2577   1.908   3.575   0.286  0.3002 -0.1512  0.2468
    2MOL     N3 2578   2.233   3.574   0.452  0.1967 -0.0267 -0.2960
    2MOL     C8 2579   2.329   3.478   0.484  0.2529 -0.2530  0.7880
    2MOL     C9 2580   2.428   3.547   0.567 -0.7531  0.0484 -0.1370
    2MOL    C10 2581   2.384   3.674   0.586 -0.2486  0.5728  0.3352
    2MOL    C11 2582   2.253   3.692   0.521 -0.6041 -0.6042 -0.2437
    2MOL     O1 2583   2.191   3.799   0.527  0.1339 -0.1112  0.4836
    2MOL    C12 2584   2.536   3.494   0.628 -0.1514  0.3269 -0.5268
    2MOL    C13 2585   2.617   3.571   0.707 -0.4105  0.2464 -0.2020
    2MOL    C14 2586   2.581   3.704   0.722  0.6093 -0.0326  0.8304
    2MOL    C15 2587   2.462   3.756   0.667  0.2226 -0.5936  0.5174
    2MOL    C16 2588   2.633   3.382   0.863  0.1085  0.0331 -0.4348
    2MOL    C17 2589   2.646   3.243   0.840 -0.1694 -1.1026 -0.3963
    2MOL    C18 2590   2.542   3.154   0.887  0.2166 -0.4653  0.5442
    2MOL    C19 2591   2.521   3.426   0.938  0.9874 -0.2589 -0.7410
    2MOL    C20 2592   2.441   3.205   0.965  0.3029  0.1615  0.0975
    2MOL    C21 2593   2.428   3.340   0.994  0.1047 -0.3304  0.7474
    2MOL    C22 2594   2.716   3.494   0.795  0.1627 -0.5354  0.4195
    2MOL    C23 2595   2.831   3.438   0.705  0.4093 -1.2342  0.4509
    2MOL     F1 2596   2.899   3.540   0.636  0.0721  0.0055 -0.2760
    2MOL     F2 2597   2.785   3.357   0.601  0.0834 -0.2554  0.5051
    2MOL     F3 2598   2.924   3.364   0.777  0.7297  0.0410  0.3864
    2MOL    C24 2599   2.786   3.579   0.907 -0.2022  0.1126  0.3962
    2MOL     F4 2600   2.868   3.501   0.976 -0.3566 -0.5880 -0.2915
    2MOL     F5 2601   2.707   3.640   0.997 -0.1532 -0.4595  0.3653
    2MOL     F6 2602   2.865   3.679   0.859  0.2242 -0.3613  0.3123
    2MOL     O2 2603   2.327   3.358   0.457 -0.4960  0.3696 -0.1626
    2MOL    C25 2604   2.524   3.003   0.889 -0.2458  0.4945 -0.1762
    2MOL     N4 2605   2.429   2.975   0.981  0.0581 -0.5611 -0.2900
    2MOL    C26 2606   2.366   3.086   1.016  0.3359 -0.3609  0.2017
    2MOL     O3 2607   2.271   3.089   1.090 -0.2035  0.2622  0.1297
    2MOL    C27 2608   1.619   3.581   0.174 -0.3022 -0.4249 -0.5969
    2MOL    C28 2609   1.578   3.521   0.293  0.5432  0.1110 -0.3883
    2MOL    C29 2610   1.577   3.712   0.144  0.5541 -0.3101 -0.5317
    2MOL    C30 2611   1.472   3.569   0.367 -0.0610  0.0741 -0.3981
    2MOL    C31 2612   1.476   3.766   0.226 -0.4836  0.3658 -0.4796
    2MOL    C32 2613   1.414   3.694   0.330 -0.1899  0.4440 -0.0521
    2MOL    C33 2614   1.289   3.738   0.370  0.2687 -0.0605  0.0579
    2MOL     N5 2615   1.168   3.699   0.307 -0.6904 -0.3251  0.8636
    2MOL     N6 2616   1.260   3.843   0.465  0.3659  0.3311 -0.2570
    2MOL    C34 2617   1.075   3.786   0.366  0.2772  0.0870  0.4134
    2MOL    C35 2618   1.122   3.868   0.460  0.3628  0.1298 -0.4219
    2MOL    C36 2619   1.349   3.865   0.585  0.6188  0.7303  0.3136
    2MOL     H1 2620   1.415   3.951   0.563  1.5477 -0.8685  1.2638
    2MOL     H2 2621   1.410   3.780   0.595 -1.8152 -0.2846 -0.2003
    2MOL     H3 2622   1.279   3.873   0.675 -0.6716  1.5877  0.3554
    2MOL    C37 2623   1.153   3.641   0.185 -0.0854 -1.0065 -0.0069
    2MOL    C38 2624   1.209   3.700   0.068  0.6942  0.0368  0.8928
    2MOL    C39 2625   1.210   3.628  -0.051 -0.2530 -0.4435 -0.1605
    2MOL    C40 2626   1.159   3.496  -0.064  0.0784  0.7370  0.8050
    2MOL    C41 2627   1.102   3.447   0.057 -0.5423 -0.2943  0.6012
    2MOL    C42 2628   1.096   3.516   0.176  0.3425 -0.0861  0.6200
    2MOL    C43 2629   1.050   3.966   0.548  0.1972  0.0342  0.3572
    2MOL     F7 2630   1.121   4.087   0.563  0.2767  0.2518 -0.0055
    2MOL     F8 2631   1.020   3.912   0.670 -0.1512  0.1012 -0.1997
    2MOL     F9 2632   0.932   4.003   0.491 -0.3155  0.1688 -0.0461
    2MOL    C44 2633   1.853   3.466  -0.075  0.6804 -0.1768  0.4230
    2MOL    C45 2634   1.734   3.461  -0.130 -0.2070  0.6054  0.0402
    2MOL    C46 2635   1.696   3.454  -0.277 -0.5519  0.3650 -0.0373
    2MOL    F10 2636   1.573   3.486  -0.311  0.1622  0.1188  0.2885
    2MOL    F11 2637   1.775   3.533  -0.351  0.1608  0.5462  0.3070
    2MOL     H4 2638   1.952   3.460  -0.132  2.2223 -0.0390 -1.3963
    2MOL     H5 2639   2.089   3.419   0.042 -0.1102 -3.1051  1.3039
    2MOL     H6 2640   2.258   3.443   0.224  1.9824  1.9726  0.0529
    2MOL     H7 2641   1.805   3.603   0.313 -1.4759  0.6524 -0.0320
    2MOL     H8 2642   1.971   3.634   0.482  1.9273  1.4435  0.2609
    2MOL     H9 2643   2.560   3.391   0.617  2.2808 -0.8994  0.0674
    2MOL    H10 2644   2.644   3.765   0.781  0.9279  2.8339  1.0218
    2MOL    H11 2645   2.440   3.860   0.704  2.3216  0.6326 -0.1849
    2MOL    H12 2646   2.504   3.535   0.937  3.7874 -0.0486 -0.0343
    2MOL    H13 2647   2.741   3.205   0.792 -0.4596  0.3488 -1.0955
    2MOL    H14 2648   2.348   3.388   1.052 -2.0876 -0.4944  2.5063
    2MOL     O4 2649   2.573   2.924   0.811  0.3247 -0.2280  0.2015
    2MOL    H15 2650   1.619   3.420   0.325  2.2107 -0.5407  0.7121
    2MOL    H16 2651   1.421   3.503   0.429 -0.3723  0.7090  0.3127
    2MOL    H17 2652   1.609   3.761   0.053 -0.3085  1.0095  0.9200
    2MOL    H18 2653   1.248   3.673  -0.144 -0.7619  0.8752  0.4981
    2MOL    H19 2654   1.260   3.792   0.071  0.8074 -2.0601 -4.1600
    2MOL    H20 2655   1.069   3.341   0.051 -0.4543 -0.5278  3.2055
    2MOL    H21 2656   1.058   3.467   0.269 -0.1421  1.6387  0.2449
    2MOL    H22 2657   0.967   3.774   0.343  0.2235  0.2393  0.9502
    2MOL    H23 2658   1.450   3.866   0.206 -0.8476  0.3711 -2.6684
    2MOL    F12 2659   1.714   3.324  -0.319 -0.4236  0.4665 -0.2839
    2MOL    C47 2660   1.502   3.419  -0.033  0.2312  0.0600  0.4123
    2MOL    H24 2661   1.484   3.325   0.017  1.1353 -0.2610  0.1087
    2MOL    H25 2662   1.453   3.424  -0.142 -1.9796  0.9977 -0.4600
    2MOL    H26 2663   1.454   3.488   0.042  1.0920 -2.1671  0.5804
    2MOL     N1 2664   1.993   3.262   1.276 -0.3426 -0.2000 -0.5160
    2MOL     N2 2665   1.895   3.257   1.074 -0.7011 -0.4447 -0.3362
    2MOL     C1 2666   1.956   3.175   1.171  0.6451  0.1665  0.0958
    2MOL     C2 2667   1.816   3.216   0.972 -0.6693 -0.6313  0.8483
    2MOL     C3 2668   1.864   3.135   0.868 -0.8242  0.2967  0.0602
    2MOL     C4 2669   1.785   3.101   0.754  0.2094  0.1517 -0.0082
    2MOL     C5 2670   1.655   3.154   0.757  0.5199  0.6284  0.1255
    2MOL     C6 2671   1.597   3.223   0.866 -0.0569 -0.3867  0.0556
    2MOL     C7 2672   1.682   3.247   0.973  0.7027 -0.4235 -1.0716
    2MOL     N3 2673   1.576   3.129   0.638 -0.1682  0.8050 -0.3492
    2MOL     C8 2674   1.486   3.022   0.626  0.4039  0.3540 -0.3330
    2MOL     C9 2675   1.446   3.014   0.480  0.7187 -0.3473 -0.3290
    2MOL    C10 2676   1.508   3.124   0.424  0.2933  0.4772 -0.3443
    2MOL    C11 2677   1.589   3.203   0.523  0.4115  0.0512  0.0127
    2MOL     O1 2678   1.649   3.308   0.510  0.3428  0.4745  0.0352
    2MOL    C12 2679   1.364   2.930   0.410  0.0248 -0.5365  0.0226
    2MOL    C13 2680   1.336   2.966   0.274 -0.0043  0.0576  0.0697
    2MOL    C14 2681   1.419   3.063   0.209  0.3932 -0.1851  0.1595
    2MOL    C15 2682   1.503   3.143   0.287  0.2671 -0.2313  0.3151
    2MOL    C16 2683   1.107   2.885   0.291  0.2656 -0.3599  0.0302
    2MOL    C17 2684   1.071   3.013   0.348  0.1657 -0.6060  0.5322
    2MOL    C18 2685   0.964   3.012   0.442  0.2507  0.0939 -0.3779
    2MOL    C19 2686   1.034   2.770   0.317  0.3756  0.2038 -0.0216
    2MOL    C20 2687   0.910   2.895   0.486  0.3123 -0.6474  0.2575
    2MOL    C21 2688   0.932   2.773   0.419  0.0655  0.5233 -0.1836
    2MOL    C22 2689   1.224   2.896   0.194  0.5584  0.6878  0.1238
    2MOL    C23 2690   1.165   2.962   0.060  0.2387 -0.1059 -0.9649
    2MOL     F1 2691   1.060   2.889   0.022  0.4891  0.3832  0.0965
    2MOL     F2 2692   1.258   2.962  -0.033  0.1664  0.2572  0.1790
    2MOL     F3 2693   1.125   3.095   0.076  0.3623  0.1164 -0.0330
    2MOL    C24 2694   1.283   2.761   0.155 -0.2567  1.2960  0.1481
    2MOL     F4 2695   1.401   2.783   0.098  0.1493 -0.8161 -0.2202
    2MOL     F5 2696   1.210   2.681   0.068  0.0156 -0.1715  0.0866
    2MOL     F6 2697   1.296   2.681   0.263 -0.7651  0.2422 -0.3909
    2MOL     O2 2698   1.458   2.943   0.715 -0.0671  0.2962  0.3320
    2MOL    C25 2699   0.925   3.119   0.529  0.4429  0.9300  0.1951
    2MOL     N4 2700   0.868   3.050   0.640 -0.1490  0.1972  0.8990
    2MOL    C26 2701   0.857   2.919   0.616  0.1708  0.4633  0.2608
    2MOL     O3 2702   0.833   2.838   0.704 -0.6284  0.2704 -0.3422
    2MOL    C27 2703   1.971   3.036   1.171 -0.1099  0.0569 -0.2565
    2MOL    C28 2704   2.078   2.983   1.241 -0.4628  0.5268 -0.2936
    2MOL    C29 2705   1.871   2.953   1.128  0.1513  0.3616  0.8594
    2MOL    C30 2706   2.086   2.848   1.265  0.9532  0.1110 -0.1669
    2MOL    C31 2707   1.884   2.812   1.143  0.4462  0.1753  0.0234
    2MOL    C32 2708   1.991   2.754   1.219  0.4048 -1.4119 -0.2289
    2MOL    C33 2709   2.009   2.615   1.222 -1.2186  0.0536  0.6679
    2MOL     N5 2710   2.123   2.557   1.164 -0.6652 -0.0595 -0.4219
    2MOL     N6 2711   1.950   2.519   1.306  0.5909 -0.3891 -0.3649
    2MOL    C34 2712   2.117   2.420   1.192  0.1210 -0.4179 -0.3530
    2MOL    C35 2713   2.019   2.395   1.277 -0.3312  0.0460  0.2150
    2MOL    C36 2714   1.918   2.549   1.447  0.2895 -0.8216 -0.0933
    2MOL     H1 2715   2.009   2.589   1.500  2.3657  2.3814 -0.9907
    2MOL     H2 2716   1.880   2.463   1.491  0.0068  1.0572 -3.9054
    2MOL     H3 2717   1.853   2.635   1.443 -0.0156 -0.5300  0.0024
    2MOL    C37 2718   2.222   2.633   1.101 -0.2042  0.1032 -0.0188
    2MOL    C38 2719   2.183   2.697   0.982 -0.3324 -0.2935  0.3842
    2MOL    C39 2720   2.260   2.800   0.934 -0.3491 -0.5777  0.2270
    2MOL    C40 2721   2.370   2.852   1.012 -0.4559 -0.3846 -0.2650
    2MOL    C41 2722   2.400   2.799   1.137  0.1003  0.2172 -0.0880
    2MOL    C42 2723   2.327   2.687   1.185 -0.3804  0.2909 -0.5973
    2MOL    C43 2724   1.978   2.256   1.337  0.6188 -0.0943 -0.0284
    2MOL     F7 2725   2.009   2.148   1.261 -0.0507  0.3511  0.2923
    2MOL     F8 2726   1.842   2.260   1.367  0.0984 -0.6243  0.5023
    2MOL     F9 2727   2.036   2.238   1.458 -0.2596  0.4726 -0.4941
    2MOL    C44 2728   1.907   3.395   1.119 -0.0189  0.1411  0.0152
    2MOL    C45 2729   1.966   3.396   1.239  0.4551  0.8607 -0.6833
    2MOL    C46 2730   1.991   3.515   1.331 -0.2275  0.1277 -0.1642
    2MOL    F10 2731   2.051   3.488   1.441  0.1666 -0.5702  0.4011
    2MOL    F11 2732   2.064   3.612   1.275  0.0530  0.5837  0.1243
    2MOL     H4 2733   1.865   3.481   1.059  0.6378  1.3743 -0.2986
    2MOL     H5 2734   1.957   3.081   0.870  1.9631 -1.0067 -1.1217
    2MOL     H6 2735   1.824   3.048   0.670 -1.0757 -0.0263  1.9803
    2MOL     H7 2736   1.658   3.303   1.061  3.3657  1.0235 -0.3758
    2MOL     H8 2737   1.495   3.262   0.864 -0.2556  0.6731  1.8636
    2MOL     H9 2738   1.288   2.866   0.463 -0.5300 -1.9144  0.5451
    2MOL    H10 2739   1.409   3.088   0.105  0.0015  2.1520  2.7267
    2MOL    H11 2740   1.556   3.220   0.238  0.4079 -1.2596 -0.4117
    2MOL    H12 2741   1.068   2.674   0.280 -1.0908 -0.9588  0.0534
    2MOL    H13 2742   1.123   3.105   0.318  0.5770  0.6561 -1.2653
    2MOL    H14 2743   0.889   2.674   0.455  0.1644 -0.4096  0.8217
    2MOL     O4 2744   0.941   3.239   0.520 -0.1824 -0.6173 -0.5487
    2MOL    H15 2745   2.155   3.049   1.276  1.3954 -0.9195 -1.7127
    2MOL    H16 2746   2.167   2.811   1.317 -1.7399  2.1289  2.4601
    2MOL    H17 2747   1.787   2.989   1.074  2.0851 -0.7036 -0.0809
    2MOL    H18 2748   2.242   2.851   0.837  0.1059 -1.1570  1.6539
    2MOL    H19 2749   2.102   2.668   0.921 -0.4527  1.5006 -0.3823
    2MOL    H20 2750   2.487   2.832   1.198  0.1672 -3.4843 -1.9097
    2MOL    H21 2751   2.355   2.635   1.280 -2.0725  0.3410  0.7282
    2MOL    H22 2752   2.195   2.357   1.159  0.0410 -1.6647  1.7786
    2MOL    H23 2753   1.808   2.746   1.103  1.3980 -1.7293 -0.3777
    2MOL    F12 2754   1.872   3.570   1.364 -0.3806  0.8624 -0.3412
    2MOL    C47 2755   1.960   3.231   1.418  0.1515 -0.3796  0.0075
    2MOL    H24 2756   1.861   3.261   1.447  0.3110 -2.2017 -3.5728
    2MOL    H25 2757   2.029   3.274   1.488 -1.1072 -2.5620  0.5778
    2MOL    H26 2758   1.964   3.121   1.417  1.8513  2.5089  1.7086
    2MOL     N1 2759   0.498   2.749   0.884  0.1339 -0.4325 -0.2579
    2MOL     N2 2760   0.622   2.569   0.956  0.2133  0.1890 -0.2685
    2MOL     C1 2761   0.593   2.704   0.984  0.3923 -0.4382 -0.0673
    2MOL     C2 2762   0.711   2.496   1.022 -0.4054 -0.3806 -0.1197
    2MOL     C3 2763   0.847   2.531   1.003  0.1845 -0.3966  0.1064
    2MOL     C4 2764   0.950   2.462   1.073  0.1297  0.0764 -0.0322
    2MOL     C5 2765   0.916   2.372   1.177  0.0862 -0.1547 -0.2179
    2MOL     C6 2766   0.782   2.343   1.196  0.2444  0.0431  0.5992
    2MOL     C7 2767   0.682   2.410   1.124  0.5662 -0.2244 -0.0486
    2MOL     N3 2768   1.013   2.304   1.253 -0.0385  0.4512  0.6465
    2MOL     C8 2769   1.015   2.166   1.272 -0.2001  0.4088 -0.3417
    2MOL     C9 2770   1.138   2.139   1.343 -0.0388 -0.2888 -0.0492
    2MOL    C10 2771   1.207   2.258   1.369 -0.5407 -0.1608  0.0022
    2MOL    C11 2772   1.128   2.366   1.304 -0.2874  0.3358  0.1723
    2MOL     O1 2773   1.158   2.487   1.297  0.3172  0.2778 -0.5771
    2MOL    C12 2774   1.164   2.022   1.417 -0.3786 -0.0407 -0.1246
    2MOL    C13 2775   1.278   2.019   1.507 -0.4340  0.8058 -0.4073
    2MOL    C14 2776   1.359   2.138   1.524 -0.2595  0.4154  0.0749
    2MOL    C15 2777   1.318   2.261   1.461  0.1928  0.4605  0.1427
    2MOL    C16 2778   1.261   1.769   1.493 -0.2369 -0.1402  0.9805
    2MOL    C17 2779   1.181   1.661   1.539 -0.2831 -0.0273 -0.2235
    2MOL    C18 2780   1.136   1.565   1.445 -0.3094  0.1656 -0.2761
    2MOL    C19 2781   1.308   1.768   1.358  0.0424  0.0366 -0.0147
    2MOL    C20 2782   1.181   1.568   1.312  0.7029 -0.6840  0.1228
    2MOL    C21 2783   1.278   1.659   1.273  0.3997  0.0530 -0.3597
    2MOL    C22 2784   1.315   1.885   1.586 -1.2986 -0.3946 -0.2546
    2MOL    C23 2785   1.471   1.867   1.605  0.8159 -0.3833  0.2418
    2MOL     F1 2786   1.489   1.741   1.644 -0.1137 -0.6604  0.1735
    2MOL     F2 2787   1.515   1.943   1.709  0.2095 -0.4692  0.5185
    2MOL     F3 2788   1.539   1.895   1.494  0.4873 -0.2289  0.5817
    2MOL    C24 2789   1.233   1.895   1.723 -0.0689  0.5649  0.3799
    2MOL     F4 2790   1.098   1.897   1.703 -0.2155 -0.0398 -0.0658
    2MOL     F5 2791   1.246   2.014   1.781 -0.0550 -0.1898  0.4290
    2MOL     F6 2792   1.262   1.801   1.815 -0.2558  0.3723  0.3314
    2MOL     O2 2793   0.936   2.084   1.233  0.1382  0.0681 -0.8654
    2MOL    C25 2794   1.061   1.443   1.465 -0.3100  0.0334 -0.0085
    2MOL     N4 2795   1.060   1.385   1.338  0.6318  0.1864  0.4756
    2MOL    C26 2796   1.125   1.452   1.244  0.2405 -0.2262 -0.1670
    2MOL     O3 2797   1.128   1.423   1.126 -0.0588 -0.3854  0.2155
    2MOL    C27 2798   0.667   2.793   1.058  0.0300  0.1180 -0.0626
    2MOL    C28 2799   0.795   2.817   1.019 -0.3458 -0.0184  0.7792
    2MOL    C29 2800   0.607   2.877   1.158  0.1534  0.0485  0.3105
    2MOL    C30 2801   0.881   2.903   1.085  0.3983 -0.0554 -0.1350
    2MOL    C31 2802   0.690   2.972   1.224 -0.3409  0.5677 -0.6162
    2MOL    C32 2803   0.826   2.982   1.187  0.8142 -0.7737 -0.1194
    2MOL    C33 2804   0.902   3.090   1.239 -0.7142  0.3900 -0.0878
    2MOL     N5 2805   0.946   3.204   1.169  0.2652  0.6819 -0.3851
    2MOL     N6 2806   0.910   3.131   1.379  0.5819 -0.4788 -0.1889
    2MOL    C34 2807   0.947   3.309   1.264  0.3500  0.2733 -0.8924
    2MOL    C35 2808   0.942   3.266   1.389 -0.6823  0.5498  0.1694
    2MOL    C36 2809   0.945   3.032   1.487 -0.3799 -0.1502 -0.3248
    2MOL     H1 2810   0.989   3.085   1.572 -0.5012 -0.6160  0.7732
    2MOL     H2 2811   1.018   2.959   1.443  3.1950  0.5999 -0.6766
    2MOL     H3 2812   0.853   2.988   1.516 -1.9246  2.4380 -0.9454
    2MOL    C37 2813   0.935   3.201   1.030 -0.0008  0.6545  0.2135
    2MOL    C38 2814   0.799   3.207   0.979  0.6202 -0.0958  0.7744
    2MOL    C39 2815   0.777   3.161   0.848  0.5802 -0.1750 -0.1658
    2MOL    C40 2816   0.881   3.105   0.771  0.0177 -0.1422 -0.1947
    2MOL    C41 2817   1.008   3.102   0.823  0.1101 -1.0819 -0.0864
    2MOL    C42 2818   1.038   3.153   0.949 -0.1773 -0.0082 -0.9739
    2MOL    C43 2819   0.916   3.357   1.507  0.0375  0.5091  1.1514
    2MOL     F7 2820   0.939   3.288   1.621  0.2236 -0.4097 -0.2953
    2MOL     F8 2821   0.790   3.407   1.508  0.1348  0.4786 -0.1465
    2MOL     F9 2822   1.002   3.458   1.510  0.0252  0.4462 -0.0884
    2MOL    C44 2823   0.527   2.534   0.859 -0.3311  0.6833 -0.4949
    2MOL    C45 2824   0.454   2.634   0.819 -0.3256  0.4873  0.5462
    2MOL    C46 2825   0.360   2.632   0.707  0.3559 -0.4316  0.2264
    2MOL    F10 2826   0.408   2.680   0.593  0.2541  0.5482  0.2138
    2MOL    F11 2827   0.308   2.510   0.689  0.2713  0.0611 -0.5691
    2MOL     H4 2828   0.514   2.429   0.833 -1.9260  0.5421  0.7842
    2MOL     H5 2829   0.870   2.608   0.928 -0.7624  0.7906  1.0624
    2MOL     H6 2830   1.054   2.488   1.051 -2.0898  2.0778  1.3286
    2MOL     H7 2831   0.581   2.385   1.154 -0.6771 -1.3085 -1.2359
    2MOL     H8 2832   0.737   2.261   1.263 -1.2561 -0.8721  4.7824
    2MOL     H9 2833   1.100   1.937   1.395 -1.7360  0.6570 -1.6377
    2MOL    H10 2834   1.436   2.136   1.599 -1.6286  3.5204  2.8624
    2MOL    H11 2835   1.359   2.360   1.485 -0.0129  0.2423  1.2296
    2MOL    H12 2836   1.377   1.841   1.325  0.0308 -0.3880  0.8886
    2MOL    H13 2837   1.153   1.652   1.640 -0.4050  2.8613 -2.6442
    2MOL    H14 2838   1.312   1.651   1.173 -1.2720  1.5238  2.5700
    2MOL     O4 2839   1.014   1.397   1.570  0.4800  0.0091 -0.2233
    2MOL    H15 2840   0.818   2.782   0.919  0.7359 -2.5567 -3.1374
    2MOL    H16 2841   0.983   2.908   1.049 -0.4917  0.4126 -0.2499
    2MOL    H17 2842   0.501   2.876   1.183 -1.4339  1.9516  1.4564
    2MOL    H18 2843   0.681   3.167   0.812 -0.1725 -3.6411  2.8901
    2MOL    H19 2844   0.712   3.219   1.041 -0.5229 -0.4225  3.0092
    2MOL    H20 2845   1.098   3.071   0.761  0.8146  2.7898 -1.5282
    2MOL    H21 2846   1.139   3.165   0.984 -1.6411  0.2908 -1.2708
    2MOL    H22 2847   0.963   3.409   1.226  1.0436 -1.5022 -0.8410
    2MOL    H23 2848   0.646   3.036   1.294 -0.8321 -2.7274  1.0123
    2MOL    F12 2849   0.260   2.715   0.727 -0.5891  0.2159  0.3552
    2MOL    C47 2850   0.498   2.884   0.822 -0.1062  0.8878 -0.3494
    2MOL    H24 2851   0.400   2.939   0.842 -0.4671  2.2404 -0.5976
    2MOL    H25 2852   0.517   2.880   0.711 -1.1754  4.0456 -0.5158
    2MOL    H26 2853   0.577   2.938   0.873 -1.1534 -0.8385 -0.7898
    2MOL     N1 2854   1.392   0.733   1.707 -0.2525 -0.3472  0.3603
    2MOL     N2 2855   1.235   0.677   1.856 -0.1894  0.2514 -0.1844
    2MOL     C1 2856   1.252   0.728   1.726 -0.0333  0.2612 -0.1170
    2MOL     C2 2857   1.111   0.625   1.907 -0.0106 -0.0073  0.0459
    2MOL     C3 2858   1.013   0.711   1.956 -0.6125 -0.1605 -0.6253
    2MOL     C4 2859   0.879   0.663   1.956  0.0978 -1.0377  0.0203
    2MOL     C5 2860   0.832   0.538   1.911  0.0014  1.2545 -0.5076
    2MOL     C6 2861   0.940   0.441   1.873 -0.5484  0.1321 -0.1567
    2MOL     C7 2862   1.071   0.495   1.871  0.6152  0.0588  0.0378
    2MOL     N3 2863   0.702   0.514   1.860  0.2116 -0.0565  0.7351
    2MOL     C8 2864   0.609   0.424   1.898  0.1417  0.3322 -0.3508
    2MOL     C9 2865   0.489   0.445   1.806 -0.3487 -0.3513  0.7415
    2MOL    C10 2866   0.523   0.547   1.718  0.5945 -0.2553  0.1037
    2MOL    C11 2867   0.658   0.595   1.755 -0.3306 -0.5207 -0.4288
    2MOL     O1 2868   0.718   0.685   1.697 -0.4373  0.0290 -0.2115
    2MOL    C12 2869   0.357   0.392   1.795 -0.1666 -0.3176 -0.7289
    2MOL    C13 2870   0.258   0.467   1.726  0.1891 -0.2667 -1.2901
    2MOL    C14 2871   0.289   0.578   1.654 -0.1064  0.0641 -0.6405
    2MOL    C15 2872   0.423   0.613   1.647  0.2694  0.1221 -0.5261
    2MOL    C16 2873   0.099   0.355   1.881  1.1357 -0.1296  0.0163
    2MOL    C17 2874   0.166   0.410   1.995  0.3098  0.0016 -0.2284
    2MOL    C18 2875   0.166   0.344   2.119 -0.6801 -0.1658 -0.3147
    2MOL    C19 2876   0.045   0.225   1.896 -0.3550 -0.3380 -0.0240
    2MOL    C20 2877   0.117   0.213   2.119  0.1840 -0.5473  0.1140
    2MOL    C21 2878   0.053   0.153   2.016  1.2217  0.4446  0.7035
    2MOL    C22 2879   0.109   0.430   1.743 -0.6703  0.3140  0.2579
    2MOL    C23 2880   0.014   0.555   1.757 -0.2604 -0.7000 -0.1460
    2MOL     F1 2881  -0.109   0.522   1.817 -0.2471  0.5329 -0.7172
    2MOL     F2 2882  -0.012   0.615   1.640  0.0527  0.0820 -0.1190
    2MOL     F3 2883   0.062   0.655   1.831 -0.3936  0.4604 -0.2984
    2MOL    C24 2884   0.064   0.349   1.620 -0.2004  0.4444 -0.2609
    2MOL     F4 2885   0.072   0.417   1.507  0.0939  0.2290  0.2563
    2MOL     F5 2886  -0.068   0.330   1.636 -0.2890 -0.2878 -0.2493
    2MOL     F6 2887   0.133   0.237   1.608  0.2623  0.6765 -0.0921
    2MOL     O2 2888   0.619   0.337   1.985 -0.1709  0.6176  0.3785
    2MOL    C25 2889   0.249   0.362   2.240  0.3309  0.3364  0.3264
    2MOL     N4 2890   0.263   0.239   2.297  0.4497  0.0751 -0.0698
    2MOL    C26 2891   0.187   0.148   2.231  0.0908  0.8712 -0.1366
    2MOL     O3 2892   0.188   0.030   2.261 -0.6221  0.2931  0.1792
    2MOL    C27 2893   1.145   0.733   1.636  0.4059  0.4239 -0.7581
    2MOL    C28 2894   1.029   0.812   1.672  0.3318 -0.2827  0.2522
    2MOL    C29 2895   1.159   0.673   1.508  0.5715  0.6018  0.3424
    2MOL    C30 2896   0.932   0.832   1.578 -0.2676 -0.2700 -0.0274
    2MOL    C31 2897   1.048   0.689   1.418 -0.5168 -0.9170  0.2006
    2MOL    C32 2898   0.936   0.766   1.456  0.6071  0.6078  0.3521
    2MOL    C33 2899   0.828   0.774   1.372  0.0507 -0.0805  0.1157
    2MOL     N5 2900   0.802   0.885   1.286  0.1355 -0.2760 -0.2584
    2MOL     N6 2901   0.760   0.656   1.325 -0.2964 -0.1857  0.3872
    2MOL    C34 2902   0.754   0.821   1.171  0.5891  0.4468  0.7359
    2MOL    C35 2903   0.734   0.691   1.191  0.4864  0.4290 -0.0838
    2MOL    C36 2904   0.649   0.610   1.409  0.1652  0.0348 -0.2207
    2MOL     H1 2905   0.632   0.673   1.495 -1.5892 -1.2201 -1.6360
    2MOL     H2 2906   0.659   0.506   1.440 -0.4762 -0.4855  1.2559
    2MOL     H3 2907   0.557   0.606   1.346  1.2192 -1.1810 -0.3713
    2MOL    C37 2908   0.863   1.013   1.286 -0.0459  0.2769 -0.1735
    2MOL    C38 2909   1.006   1.026   1.312 -0.0529  0.1060 -0.0029
    2MOL    C39 2910   1.065   1.154   1.320 -0.5420  0.9693 -0.4015
    2MOL    C40 2911   0.991   1.265   1.312 -0.5373 -0.0437 -0.3642
    2MOL    C41 2912   0.857   1.253   1.275 -0.5927  0.3583 -0.2541
    2MOL    C42 2913   0.787   1.130   1.258  0.0202 -0.5318  0.7371
    2MOL    C43 2914   0.681   0.590   1.089 -0.3264  0.1563  0.0120
    2MOL     F7 2915   0.699   0.627   0.962 -0.2189 -0.1413  0.4135
    2MOL     F8 2916   0.557   0.555   1.119 -0.5122  0.4751  0.3141
    2MOL     F9 2917   0.748   0.473   1.106  0.2244 -0.5887 -0.0612
    2MOL    C44 2918   1.360   0.660   1.915  0.3904 -0.7249 -0.0386
    2MOL    C45 2919   1.452   0.688   1.826 -0.8267  0.3712 -0.1406
    2MOL    C46 2920   1.606   0.681   1.846 -0.5353  0.3151  0.4548
    2MOL    F10 2921   1.675   0.665   1.734 -0.2613 -0.4497 -0.2064
    2MOL    F11 2922   1.653   0.795   1.903  0.0902 -0.1296 -0.1044
    2MOL     H4 2923   1.362   0.614   2.017 -3.2155 -1.5147 -1.9437
    2MOL     H5 2924   1.031   0.816   1.972 -2.7846  0.2855  1.7602
    2MOL     H6 2925   0.807   0.737   1.972  2.7628 -0.9872 -1.9068
    2MOL     H7 2926   1.138   0.432   1.820  1.1915  0.9060  1.1089
    2MOL     H8 2927   0.929   0.333   1.856  1.0153 -3.9945  2.3277
    2MOL     H9 2928   0.336   0.297   1.846 -1.9416  1.6130  0.1564
    2MOL    H10 2929   0.207   0.630   1.603 -0.5405 -0.2111  1.0792
    2MOL    H11 2930   0.443   0.701   1.599  0.6003 -0.7250  0.6710
    2MOL    H12 2931  -0.010   0.183   1.818 -0.3860 -0.7196 -3.7492
    2MOL    H13 2932   0.202   0.512   1.989 -2.7480 -0.7870 -0.0510
    2MOL    H14 2933  -0.003   0.061   2.029 -1.2090  2.7961  0.0407
    2MOL     O4 2934   0.304   0.464   2.273  0.1241  0.8198 -0.3394
    2MOL    H15 2935   1.027   0.868   1.761  1.2968  1.0668 -0.5943
    2MOL    H16 2936   0.857   0.903   1.593  1.6110  0.2552 -1.8837
    2MOL    H17 2937   1.243   0.609   1.486 -1.5184  2.9791  2.0081
    2MOL    H18 2938   1.172   1.163   1.338 -2.8130 -2.4662 -0.1364
    2MOL    H19 2939   1.072   0.943   1.324  0.5205  0.5820 -2.0847
    2MOL    H20 2940   0.802   1.350   1.265  0.0057  3.7146 -0.5154
    2MOL    H21 2941   0.681   1.128   1.236  2.5309  0.1958 -0.5960
    2MOL    H22 2942   0.749   0.874   1.081  4.4746 -1.6141  1.7603
    2MOL    H23 2943   1.052   0.629   1.324  2.4408  0.2668 -0.1585
    2MOL    F12 2944   1.633   0.575   1.923  0.0007  0.4786 -0.8185
    2MOL    C47 2945   1.450   0.817   1.596 -0.2879 -0.0788 -0.3141
    2MOL    H24 2946   1.488   0.749   1.519 -0.4275 -0.1778 -1.2106
    2MOL    H25 2947   1.532   0.873   1.636 -0.6945 -2.4266 -0.7177
    2MOL    H26 2948   1.365   0.886   1.575 -2.0695  3.7842  1.5146
    2MOL     N1 2949   0.353  -0.097   1.974 -0.5870 -0.0843  0.6805
    2MOL     N2 2950   0.326  -0.315   2.024 -0.1177  0.7628 -0.0644
    2MOL     C1 2951   0.368  -0.188   2.080 -0.4757  0.2456 -0.4683
    2MOL     C2 2952   0.384  -0.438   2.056  0.8361  0.6868  0.6649
    2MOL     C3 2953   0.438  -0.520   1.957  0.1333 -0.7522  0.2401
    2MOL     C4 2954   0.521  -0.627   1.992 -0.6183 -0.6634 -0.4321
    2MOL     C5 2955   0.537  -0.664   2.126  0.5875  0.6412  0.2369
    2MOL     C6 2956   0.474  -0.591   2.224  0.2123  0.4759  0.2591
    2MOL     C7 2957   0.406  -0.473   2.189  0.4503 -0.3090  1.1616
    2MOL     N3 2958   0.610  -0.786   2.165 -0.0551  0.0397  0.1319
    2MOL     C8 2959   0.663  -0.797   2.291  0.7035  0.0007 -0.2060
    2MOL     C9 2960   0.690  -0.940   2.306  0.1340  0.6068  0.1748
    2MOL    C10 2961   0.662  -1.006   2.191 -0.7087 -0.8531 -0.3636
    2MOL    C11 2962   0.595  -0.907   2.099  0.1298  0.6807 -0.4345
    2MOL     O1 2963   0.521  -0.939   2.010  0.2216  0.4756  0.5164
    2MOL    C12 2964   0.736  -1.011   2.416  0.1001 -0.4413  0.2795
    2MOL    C13 2965   0.761  -1.152   2.414  0.3584  0.0177  0.0558
    2MOL    C14 2966   0.741  -1.217   2.290  0.7817 -0.1631  0.1898
    2MOL    C15 2967   0.683  -1.145   2.180 -0.0061 -1.3611  0.2001
    2MOL    C16 2968   0.896  -1.110   2.612 -0.0994  0.2296 -0.4520
    2MOL    C17 2969   1.005  -1.041   2.543 -0.2414  0.5785  0.8557
    2MOL    C18 2970   1.014  -0.901   2.553 -0.2186 -0.4199 -0.5700
    2MOL    C19 2971   0.839  -1.037   2.719  0.2971 -0.8100 -0.1221
    2MOL    C20 2972   0.936  -0.832   2.635  0.8367 -0.7375  0.3686
    2MOL    C21 2973   0.853  -0.892   2.726  0.2335  0.7390  0.5611
    2MOL    C22 2974   0.822  -1.223   2.537  0.6755  0.3634  0.2526
    2MOL    C23 2975   0.687  -1.278   2.599  0.2939  0.5367 -0.4865
    2MOL     F1 2976   0.589  -1.173   2.607 -0.1353 -0.2022  0.6799
    2MOL     F2 2977   0.695  -1.333   2.720 -0.1236  0.1825  0.1484
    2MOL     F3 2978   0.625  -1.366   2.517  0.2400 -0.0978 -0.2745
    2MOL    C24 2979   0.917  -1.341   2.513  0.4517 -0.1197  1.4059
    2MOL     F4 2980   0.852  -1.455   2.512  0.2390  0.4036 -0.1694
    2MOL     F5 2981   1.004  -1.358   2.614  0.2831 -0.2893 -0.0887
    2MOL     F6 2982   0.992  -1.333   2.398  0.2501  0.1136 -0.2173
    2MOL     O2 2983   0.679  -0.707   2.374 -0.7395 -0.2222 -0.7176
    2MOL    C25 2984   1.073  -0.800   2.453 -0.7439 -1.0145  0.1751
    2MOL     N4 2985   1.009  -0.679   2.480  0.2575  0.4480 -0.2204
    2MOL    C26 2986   0.928  -0.691   2.593 -0.6779 -0.0175  0.0797
    2MOL     O3 2987   0.861  -0.600   2.630  0.4690  0.5185 -0.0348
    2MOL    C27 2988   0.449  -0.174   2.193  0.4845  0.4415 -0.1677
    2MOL    C28 2989   0.378  -0.173   2.312 -0.6275  0.9155 -0.4405
    2MOL    C29 2990   0.589  -0.185   2.188 -0.2054 -0.2294  0.1129
    2MOL    C30 2991   0.454  -0.165   2.431 -0.4441  0.1676 -0.9724
    2MOL    C31 2992   0.663  -0.181   2.306  0.4131  0.1171  0.0138
    2MOL    C32 2993   0.592  -0.159   2.427  0.4991 -0.2943 -0.6454
    2MOL    C33 2994   0.662  -0.123   2.543  0.0909 -0.6866  0.6609
    2MOL     N5 2995   0.649   0.010   2.602 -0.3483 -0.9379 -0.5131
    2MOL     N6 2996   0.784  -0.176   2.582 -0.1285  0.2239 -0.4872
    2MOL    C34 2997   0.771   0.038   2.665  0.0055  1.3988 -0.4077
    2MOL    C35 2998   0.850  -0.069   2.650 -0.2183 -0.3686 -0.0819
    2MOL    C36 2999   0.783  -0.314   2.642 -0.8541  0.1106  0.2310
    2MOL     H1 3000   0.837  -0.393   2.588 -0.2203  1.3514 -1.8714
    2MOL     H2 3001   0.677  -0.353   2.648  0.7638 -1.3927  0.4993
    2MOL     H3 3002   0.820  -0.316   2.748  0.8068  0.2581  1.7775
    2MOL    C37 3003   0.566   0.097   2.543  0.3704 -0.3259  0.3112
    2MOL    C38 3004   0.593   0.131   2.414  0.1103 -0.1985  0.5592
    2MOL    C39 3005   0.496   0.190   2.329  0.2051 -0.3545 -0.5991
    2MOL    C40 3006   0.367   0.202   2.383 -0.4135 -0.2682 -0.3123
    2MOL    C41 3007   0.344   0.179   2.520  0.1349 -0.1235 -0.3204
    2MOL    C42 3008   0.449   0.145   2.605  0.0200  0.0221 -0.0324
    2MOL    C43 3009   0.997  -0.073   2.699  0.0030 -0.8154 -0.2529
    2MOL     F7 3010   1.078   0.033   2.655  0.2037  0.6392 -0.4110
    2MOL     F8 3011   1.062  -0.186   2.657 -0.0222  0.0348 -0.5982
    2MOL     F9 3012   0.997  -0.070   2.831  0.7134 -0.1683 -0.2193
    2MOL    C44 3013   0.268  -0.288   1.899  0.2945 -0.1289  0.6472
    2MOL    C45 3014   0.304  -0.169   1.863  0.9506  0.0135  0.1054
    2MOL    C46 3015   0.286  -0.098   1.731 -0.3545  0.1006 -0.4764
    2MOL    F10 3016   0.401  -0.102   1.669  0.2983  0.2176  0.2187
    2MOL    F11 3017   0.188  -0.159   1.666 -0.0559 -0.1973 -0.2704
    2MOL     H4 3018   0.225  -0.365   1.844  2.1325  3.6088  0.3768
    2MOL     H5 3019   0.436  -0.481   1.851  1.4561  0.8424  1.9826
    2MOL     H6 3020   0.559  -0.693   1.916 -0.1857 -1.3494  1.5561
    2MOL     H7 3021   0.364  -0.418   2.270  1.1938 -2.5913 -1.6802
    2MOL     H8 3022   0.462  -0.623   2.324 -0.0673  0.2686 -1.2591
    2MOL     H9 3023   0.751  -0.942   2.498 -1.1348  1.2697 -0.3952
    2MOL    H10 3024   0.760  -1.323   2.281  1.4270 -0.0274 -2.9703
    2MOL    H11 3025   0.655  -1.197   2.088 -0.3372  2.2365 -0.7790
    2MOL    H12 3026   0.770  -1.087   2.785 -0.3800  1.8926  3.0058
    2MOL    H13 3027   1.064  -1.100   2.463  1.4505 -2.9675 -3.1618
    2MOL    H14 3028   0.790  -0.837   2.788  0.0570  1.7675  0.2650
    2MOL     O4 3029   1.144  -0.832   2.359 -0.1310 -0.0928  0.4068
    2MOL    H15 3030   0.270  -0.173   2.319  0.1175 -0.3700 -1.9500
    2MOL    H16 3031   0.409  -0.151   2.529  1.8142 -0.1143  0.8829
    2MOL    H17 3032   0.634  -0.192   2.086  1.2753  0.6606 -3.5241
    2MOL    H18 3033   0.520   0.203   2.219 -1.4047 -0.3441 -0.8283
    2MOL    H19 3034   0.698   0.112   2.381  0.7700  0.1304  0.6003
    2MOL    H20 3035   0.252   0.199   2.571 -1.5888  2.5293  1.8133
    2MOL    H21 3036   0.431   0.116   2.707 -3.0208 -0.2400 -2.7737
    2MOL    H22 3037   0.797   0.139   2.704  3.0838  0.1559  2.8432
    2MOL    H23 3038   0.772  -0.169   2.298 -1.2018  0.5083  0.0339
    2MOL    F12 3039   0.249   0.028   1.739  0.0944  0.0254 -0.0440
    2MOL    C47 3040   0.442   0.013   1.968  0.2383  0.2788 -0.4906
    2MOL    H24 3041   0.394   0.091   2.023 -1.0583  2.0269 -0.4782
    2MOL    H25 3042   0.445   0.051   1.866  1.4618 -1.1032  2.0063
    2MOL    H26 3043   0.538  -0.004   2.010 -0.5729 -0.7260  1.4577
    2MOL     N1 3044   0.888   0.381   2.435  0.8834  0.5614 -0.2789
    2MOL     N2 3045   1.099   0.388   2.342 -0.2214 -0.2082 -0.3458
    2MOL     C1 3046   0.988   0.303   2.380 -1.0419  0.2268  0.4177
    2MOL     C2 3047   1.212   0.348   2.279  0.3324  0.2409 -0.0493
    2MOL     C3 3048   1.291   0.246   2.323  0.7063 -0.1526 -0.1190
    2MOL     C4 3049   1.405   0.211   2.248 -0.2921  0.3405  0.0682
    2MOL     C5 3050   1.440   0.270   2.130  0.1194 -0.6723  0.3057
    2MOL     C6 3051   1.362   0.378   2.077  0.4169 -0.3692 -0.2501
    2MOL     C7 3052   1.240   0.409   2.152  0.9581 -0.4402  0.1409
    2MOL     N3 3053   1.552   0.224   2.057 -0.2830 -0.7397 -0.6956
    2MOL     C8 3054   1.665   0.302   2.039 -1.0299  0.1807  0.4675
    2MOL     C9 3055   1.723   0.242   1.912  0.1464 -0.7059 -0.0607
    2MOL    C10 3056   1.647   0.132   1.874 -0.0962 -0.5660  0.5820
    2MOL    C11 3057   1.540   0.116   1.971  0.0450  0.2218  0.6500
    2MOL     O1 3058   1.451   0.038   1.953  0.1930  0.3675  0.1963
    2MOL    C12 3059   1.837   0.278   1.850  0.0257  0.1795 -0.2309
    2MOL    C13 3060   1.885   0.195   1.736  0.7298 -0.0628 -0.1300
    2MOL    C14 3061   1.809   0.081   1.703 -0.6754  0.1651  0.2868
    2MOL    C15 3062   1.696   0.049   1.780  0.3817 -0.1148  0.6137
    2MOL    C16 3063   2.032   0.384   1.672  0.4850 -0.6795  0.4976
    2MOL    C17 3064   1.933   0.457   1.600  0.3560  0.0639 -0.2490
    2MOL    C18 3065   1.940   0.597   1.590 -0.9888  0.2227  0.7124
    2MOL    C19 3066   2.143   0.456   1.725 -0.8944 -0.3378  0.3348
    2MOL    C20 3067   2.050   0.664   1.646  0.2309  0.7750  0.3417
    2MOL    C21 3068   2.150   0.598   1.712  0.2274  0.6788  0.2811
    2MOL    C22 3069   2.022   0.231   1.674 -0.1282 -0.8538  0.2179
    2MOL    C23 3070   2.135   0.168   1.769 -0.0879 -0.5406  0.0900
    2MOL     F1 3071   2.123   0.033   1.779  0.4783  0.0352  0.7640
    2MOL     F2 3072   2.131   0.217   1.893 -0.3253 -0.0243  0.7352
    2MOL     F3 3073   2.258   0.193   1.712  0.0102  0.4089  0.4449
    2MOL    C24 3074   2.041   0.174   1.532  0.5536 -0.3147  0.5335
    2MOL     F4 3075   2.155   0.218   1.473 -0.6550 -0.1051  0.5175
    2MOL     F5 3076   1.942   0.211   1.445  0.1199  0.0539  0.5563
    2MOL     F6 3077   2.050   0.039   1.524 -0.0155  0.1373 -0.0810
    2MOL     O2 3078   1.710   0.386   2.116 -0.6336  0.0316  0.7624
    2MOL    C25 3079   1.862   0.701   1.519 -0.4154  0.3489  0.6165
    2MOL     N4 3080   1.918   0.822   1.547  0.0110 -0.1202 -0.2962
    2MOL    C26 3081   2.027   0.810   1.626  0.1532  0.2499 -0.3315
    2MOL     O3 3082   2.088   0.905   1.668  0.1073  0.3247 -0.3820
    2MOL    C27 3083   0.978   0.171   2.325  0.3377 -0.1992  0.3461
    2MOL    C28 3084   1.064   0.070   2.363  0.7276 -0.1501  0.3251
    2MOL    C29 3085   0.897   0.151   2.208 -0.6982  0.0469 -0.3314
    2MOL    C30 3086   1.080  -0.047   2.292  0.1135 -0.5973  0.2748
    2MOL    C31 3087   0.924   0.036   2.132  0.0090 -0.3305  0.1305
    2MOL    C32 3088   1.022  -0.055   2.167  0.0770  0.3419  0.5548
    2MOL    C33 3089   1.063  -0.147   2.068 -0.7668  0.1299 -1.0656
    2MOL     N5 3090   1.109  -0.281   2.089  0.0409  0.1103 -0.1617
    2MOL     N6 3091   1.121  -0.105   1.943  0.4035  0.1379  0.7922
    2MOL    C34 3092   1.178  -0.312   1.968  0.3001  0.2050 -0.7133
    2MOL    C35 3093   1.193  -0.211   1.886 -0.1533  0.0100 -0.8662
    2MOL    C36 3094   1.151   0.033   1.910 -0.3481 -0.3057  0.3954
    2MOL     H1 3095   1.249   0.043   1.859 -2.2966 -0.0768  1.4599
    2MOL     H2 3096   1.154   0.099   2.009  1.3859  1.5019  0.5326
    2MOL     H3 3097   1.067   0.075   1.855 -0.1227  0.1246  1.9653
    2MOL    C37 3098   1.086  -0.365   2.198 -0.0300  0.2758  0.3217
    2MOL    C38 3099   0.954  -0.387   2.243  0.0335  0.1562  0.3477
    2MOL    C39 3100   0.928  -0.479   2.346 -0.7123  0.1999 -0.2879
    2MOL    C40 3101   1.034  -0.561   2.399 -0.2799 -0.1656  0.1763
    2MOL    C41 3102   1.166  -0.535   2.356 -0.0367  0.1216 -0.7804
    2MOL    C42 3103   1.185  -0.437   2.256 -0.0729  0.9744  0.1045
    2MOL    C43 3104   1.280  -0.206   1.762 -0.3835  0.5153 -0.5510
    2MOL     F7 3105   1.256  -0.097   1.679 -0.1428 -0.4561 -0.5427
    2MOL     F8 3106   1.253  -0.316   1.696  0.1617 -0.2435 -0.4385
    2MOL     F9 3107   1.419  -0.206   1.794  0.5998  0.2759 -0.1821
    2MOL    C44 3108   1.046   0.516   2.358 -0.1234  0.6944 -0.5799
    2MOL    C45 3109   0.926   0.516   2.415 -0.8050  0.4699  0.3510
    2MOL    C46 3110   0.818   0.626   2.416  0.1082 -0.1431  0.1108
    2MOL    F10 3111   0.876   0.729   2.360  0.0519  0.3063 -0.0919
    2MOL    F11 3112   0.709   0.595   2.341 -0.0690 -0.1284  0.1305
    2MOL     H4 3113   1.099   0.604   2.311 -1.4524 -0.9209  1.6121
    2MOL     H5 3114   1.265   0.204   2.421 -0.9220 -1.3390  0.3744
    2MOL     H6 3115   1.477   0.131   2.290 -0.8800  1.5774  0.6188
    2MOL     H7 3116   1.174   0.487   2.111 -2.4005  1.0023  0.0650
    2MOL     H8 3117   1.386   0.424   1.985 -0.8163 -0.3939  0.0224
    2MOL     H9 3118   1.894   0.359   1.891 -0.6288  0.7893  1.2848
    2MOL    H10 3119   1.850   0.017   1.628  1.1067  2.5521  0.6313
    2MOL    H11 3120   1.633  -0.037   1.757 -0.8576  0.0596 -2.0589
    2MOL    H12 3121   2.219   0.407   1.779 -0.0016  0.2539 -2.7304
    2MOL    H13 3122   1.851   0.404   1.548 -1.0922 -2.4744 -1.8219
    2MOL    H14 3123   2.243   0.652   1.738 -1.8182  0.4730 -1.1598
    2MOL     O4 3124   1.761   0.686   1.456  0.1053  0.1073  0.2496
    2MOL    H15 3125   1.117   0.089   2.447 -2.0669  2.3709  2.3532
    2MOL    H16 3126   1.157  -0.110   2.323  1.9017 -0.9655  0.9420
    2MOL    H17 3127   0.830   0.224   2.161 -0.8230 -0.6564 -0.3728
    2MOL    H18 3128   0.829  -0.507   2.374  2.1377  0.6500 -0.5833
    2MOL    H19 3129   0.867  -0.335   2.198  1.0315 -2.8300 -2.4881
    2MOL    H20 3130   1.254  -0.593   2.385 -2.0849 -1.5264 -2.9979
    2MOL    H21 3131   1.293  -0.429   2.222  1.1278  1.4191  0.5157
    2MOL    H22 3132   1.228  -0.406   1.972  2.6870  0.0642  2.2047
    2MOL    H23 3133   0.872   0.016   2.044  0.8484  0.7041  3.1610
    2MOL    F12 3134   0.781   0.668   2.543  0.1520  0.4912  0.4965
    2MOL    C47 3135   0.815   0.339   2.553  0.6000 -0.3335  0.2868
    2MOL    H24 3136   0.878   0.337   2.637  2.4881 -1.0177 -2.9018
    2MOL    H25 3137   0.785   0.237   2.541 -0.3826  1.5511  1.5210
    2MOL    H26 3138   0.731   0.408   2.564  0.6462  1.3275  0.1185
    2MOL     N1 3139   1.292   1.297   1.697  0.6449 -0.0204 -0.0533
    2MOL     N2 3140   1.362   1.421   1.878  0.4828 -0.1238 -0.0247
    2MOL     C1 3141   1.392   1.393   1.740  0.2635  0.1927  0.3003
    2MOL     C2 3142   1.399   1.526   1.954  0.2278 -0.3291 -0.0497
    2MOL     C3 3143   1.529   1.583   1.947 -0.0956 -0.3755  0.5137
    2MOL     C4 3144   1.565   1.696   2.022 -0.2876  0.5611  0.4206
    2MOL     C5 3145   1.471   1.755   2.107 -0.1249  0.0832 -0.7387
    2MOL     C6 3146   1.342   1.694   2.122 -0.0217  0.0046  0.0401
    2MOL     C7 3147   1.308   1.579   2.049 -0.5014 -0.5444  0.1581
    2MOL     N3 3148   1.501   1.881   2.157  0.3340  0.3363 -0.0815
    2MOL     C8 3149   1.606   1.893   2.245 -0.3721  0.0394  0.3861
    2MOL     C9 3150   1.645   2.033   2.233 -0.2432 -0.6126 -0.4904
    2MOL    C10 3151   1.566   2.094   2.136  0.0334  0.6568 -0.3008
    2MOL    C11 3152   1.475   1.990   2.078 -0.3631  0.2965 -0.1201
    2MOL     O1 3153   1.396   2.001   1.990  0.6068 -0.5724  0.0124
    2MOL    C12 3154   1.761   2.099   2.283  0.1601  0.6969 -0.3151
    2MOL    C13 3155   1.797   2.225   2.231 -0.2055  0.4092 -0.1110
    2MOL    C14 3156   1.705   2.290   2.140 -1.0262  0.2936 -0.5720
    2MOL    C15 3157   1.593   2.222   2.089 -0.4480  0.1957  0.4094
    2MOL    C16 3158   2.000   2.357   2.139  0.1781 -0.4093  0.2109
    2MOL    C17 3159   1.998   2.494   2.118  0.2474  0.0356 -0.1014
    2MOL    C18 3160   2.032   2.543   1.994  0.1283 -0.1054 -0.0069
    2MOL    C19 3161   2.023   2.271   2.028 -0.2907 -0.2327  0.3821
    2MOL    C20 3162   2.060   2.464   1.888 -0.4288  0.6528 -0.2145
    2MOL    C21 3163   2.060   2.329   1.899  0.3810 -0.4385 -0.3574
    2MOL    C22 3164   1.929   2.297   2.272  0.0607  0.1900 -0.1736
    2MOL    C23 3165   1.891   2.404   2.371 -0.3430  0.6161  0.1252
    2MOL     F1 3166   1.830   2.358   2.480 -0.3094  0.4275 -0.0628
    2MOL     F2 3167   1.807   2.490   2.318 -0.9625 -0.0788  0.4207
    2MOL     F3 3168   1.997   2.480   2.421 -0.5571  0.2326 -0.2281
    2MOL    C24 3169   2.039   2.202   2.347  0.4864  0.2797  0.4590
    2MOL     F4 3170   2.154   2.269   2.350  0.2669 -0.3542  0.2094
    2MOL     F5 3171   2.062   2.101   2.261 -0.4570  0.2590 -0.0206
    2MOL     F6 3172   2.009   2.163   2.476 -0.2082  0.2754  0.2039
    2MOL     O2 3173   1.670   1.814   2.315 -0.4222 -0.6321 -0.7750
    2MOL    C25 3174   2.047   2.679   1.948 -0.0986  0.3881 -0.0401
    2MOL     N4 3175   2.088   2.676   1.815  0.1331 -0.4582 -0.2186
    2MOL    C26 3176   2.100   2.547   1.767 -0.1428  0.5733 -0.1790
    2MOL     O3 3177   2.141   2.510   1.659 -0.0624  0.1024  1.1083
    2MOL    C27 3178   1.497   1.441   1.657 -0.0370  0.2744 -0.4109
    2MOL    C28 3179   1.628   1.416   1.686 -0.8543 -0.1869  0.1312
    2MOL    C29 3180   1.463   1.474   1.527 -0.4713  0.6936  0.1630
    2MOL    C30 3181   1.727   1.424   1.587 -0.2114  0.9553  0.2607
    2MOL    C31 3182   1.556   1.474   1.421  0.2311  0.0336  0.2662
    2MOL    C32 3183   1.691   1.447   1.449  0.4645  0.2393 -0.3118
    2MOL    C33 3184   1.790   1.437   1.354 -0.0237  0.3610  0.4820
    2MOL     N5 3185   1.842   1.315   1.300 -0.6406  0.8365 -1.0539
    2MOL     N6 3186   1.853   1.548   1.292 -0.3246 -0.7328  0.5690
    2MOL    C34 3187   1.912   1.365   1.191 -0.3208  0.1882  0.9804
    2MOL    C35 3188   1.921   1.498   1.186 -0.1971 -0.3751  0.5730
    2MOL    C36 3189   1.809   1.686   1.321 -0.3354  0.9232  0.0732
    2MOL     H1 3190   1.826   1.753   1.231  0.3124 -0.3781  0.1289
    2MOL     H2 3191   1.866   1.741   1.407  2.2378  0.8863  1.5915
    2MOL     H3 3192   1.703   1.698   1.348 -1.1820  0.6014  0.1433
    2MOL    C37 3193   1.856   1.195   1.363  0.0508  0.3301  0.1922
    2MOL    C38 3194   1.749   1.143   1.445  0.4208 -0.5201 -0.7917
    2MOL    C39 3195   1.767   1.019   1.503 -0.4807 -0.9514 -0.0821
    2MOL    C40 3196   1.890   0.946   1.477 -0.4382 -0.1898  0.3809
    2MOL    C41 3197   1.985   0.995   1.384 -0.1434  0.4914  0.6229
    2MOL    C42 3198   1.969   1.120   1.328  0.1582  0.6615  0.2778
    2MOL    C43 3199   2.006   1.576   1.087 -0.3810 -1.0727  0.3258
    2MOL     F7 3200   1.963   1.707   1.068 -0.4966  0.3662 -0.3384
    2MOL     F8 3201   1.995   1.508   0.969 -0.0521  0.0049  0.3319
    2MOL     F9 3202   2.136   1.578   1.121 -0.0042  0.5505  0.1920
    2MOL    C44 3203   1.264   1.325   1.915 -0.2997  0.6456  0.8599
    2MOL    C45 3204   1.229   1.252   1.811  0.2374  0.1110  0.0579
    2MOL    C46 3205   1.120   1.145   1.804  0.6182  0.1152 -0.3069
    2MOL    F10 3206   1.169   1.023   1.786 -0.6615 -0.0554  0.1150
    2MOL    F11 3207   1.038   1.133   1.917 -0.3320 -0.0076 -0.3123
    2MOL     H4 3208   1.227   1.318   2.017 -0.5360 -2.6617  1.0018
    2MOL     H5 3209   1.595   1.548   1.868  0.7082 -1.0913 -0.0411
    2MOL     H6 3210   1.663   1.741   2.013 -2.7525  1.7395  0.7165
    2MOL     H7 3211   1.208   1.541   2.071  0.4800 -0.1949 -1.4008
    2MOL     H8 3212   1.278   1.731   2.204  0.1140 -0.2059  2.7718
    2MOL     H9 3213   1.823   2.028   2.343 -0.5877  3.4604 -0.6240
    2MOL    H10 3214   1.739   2.379   2.095 -3.2962 -1.4739  2.7277
    2MOL    H11 3215   1.528   2.269   2.011 -0.7089 -1.1300  0.7901
    2MOL    H12 3216   2.016   2.162   2.044  0.1293 -0.8244 -0.4075
    2MOL    H13 3217   1.978   2.567   2.193  0.3741  0.8067  0.0941
    2MOL    H14 3218   2.070   2.271   1.810  0.2880  0.3734  1.4658
    2MOL     O4 3219   2.023   2.775   2.018  0.3488  0.0137 -0.4511
    2MOL    H15 3220   1.652   1.383   1.787  0.6218 -1.3201  1.9491
    2MOL    H16 3221   1.831   1.393   1.613  1.6634 -1.9253  1.4948
    2MOL    H17 3222   1.356   1.477   1.500  3.3121 -1.5502 -1.7413
    2MOL    H18 3223   1.689   0.974   1.561 -0.0644  1.1433  0.1091
    2MOL    H19 3224   1.666   1.194   1.464  2.0835 -1.0140 -1.9851
    2MOL    H20 3225   2.069   0.934   1.352 -0.7850 -0.7259  0.9455
    2MOL    H21 3226   2.045   1.161   1.259 -0.0800  0.4636 -1.0214
    2MOL    H22 3227   1.969   1.291   1.130 -0.6976  1.1968 -0.4929
    2MOL    H23 3228   1.527   1.482   1.317  2.1961 -0.7400 -0.9828
    2MOL    F12 3229   1.031   1.161   1.700  0.1277 -0.0228 -0.6219
    2MOL    C47 3230   1.335   1.194   1.598 -0.3464  0.0634  0.0353
    2MOL    H24 3231   1.251   1.203   1.528  1.0590 -4.2055  0.0686
    2MOL    H25 3232   1.324   1.092   1.646  0.6785 -1.3076 -0.3658
    2MOL    H26 3233   1.442   1.213   1.567  0.0658 -2.2083  0.9789
    2MOL     N1 3234   2.298   3.163   2.320  0.1124 -0.1762 -0.5975
    2MOL     N2 3235   2.511   3.218   2.351  0.1531  0.8139 -0.0723
    2MOL     C1 3236   2.417   3.179   2.251  0.3581 -0.3562  0.2998
    2MOL     C2 3237   2.644   3.246   2.324 -0.3264 -0.4605  0.8189
    2MOL     C3 3238   2.739   3.142   2.342 -0.2407 -0.2601  0.2404
    2MOL     C4 3239   2.859   3.139   2.277 -0.3232  0.7098  0.7719
    2MOL     C5 3240   2.871   3.236   2.174 -0.3931 -0.0653  0.0519
    2MOL     C6 3241   2.776   3.346   2.151  0.1131  0.9947 -0.2408
    2MOL     C7 3242   2.669   3.359   2.240 -1.0225 -0.3294  0.8435
    2MOL     N3 3243   2.946   3.210   2.058  0.2341 -0.5136 -0.3050
    2MOL     C8 3244   3.056   3.280   2.019 -0.3030 -0.2566 -0.5693
    2MOL     C9 3245   3.104   3.216   1.893  0.3957 -1.0063  0.0448
    2MOL    C10 3246   3.010   3.118   1.864 -0.2595 -0.1760 -0.5259
    2MOL    C11 3247   2.909   3.111   1.973 -0.0252 -0.1847  0.0811
    2MOL     O1 3248   2.813   3.034   1.983  0.1153  0.0541 -0.0700
    2MOL    C12 3249   3.188   3.271   1.803 -0.0923 -0.4237  0.2345
    2MOL    C13 3250   3.183   3.227   1.672 -0.5014  0.7863  0.3465
    2MOL    C14 3251   3.085   3.124   1.628  0.3160  0.1167 -0.0471
    2MOL    C15 3252   2.999   3.067   1.728  0.1672  0.5754  0.0171
    2MOL    C16 3253   3.284   3.234   1.429 -0.3391 -0.1706  0.2179
    2MOL    C17 3254   3.247   3.283   1.299 -0.3747 -1.1923  0.5454
    2MOL    C18 3255   3.279   3.206   1.185 -0.0269  0.3808  0.4580
    2MOL    C19 3256   3.354   3.112   1.440 -1.0566  0.6775  0.3808
    2MOL    C20 3257   3.363   3.095   1.202  0.0679 -0.0530  0.0218
    2MOL    C21 3258   3.398   3.044   1.325  0.6516 -0.0157 -0.3636
    2MOL    C22 3259   3.251   3.313   1.558  0.6481 -0.7006 -0.3594
    2MOL    C23 3260   3.140   3.424   1.533  0.2668  0.0884 -0.6568
    2MOL     F1 3261   3.084   3.482   1.644  0.4907  0.0309 -0.1555
    2MOL     F2 3262   3.026   3.376   1.467 -0.6215  0.2162 -0.2127
    2MOL     F3 3263   3.187   3.526   1.452  0.3440  0.5369  0.0926
    2MOL    C24 3264   3.386   3.380   1.607  0.4746 -0.6553  0.8546
    2MOL     F4 3265   3.453   3.297   1.689  0.8611 -0.0405 -0.1973
    2MOL     F5 3266   3.359   3.484   1.689 -0.2914 -0.1791 -0.1659
    2MOL     F6 3267   3.476   3.423   1.507 -0.0744 -0.2771 -0.0693
    2MOL     O2 3268   3.110   3.386   2.070  0.1736  0.1053  0.3799
    2MOL    C25 3269   3.265   3.229   1.040 -0.2238 -0.5342 -0.0835
    2MOL     N4 3270   3.335   3.133   0.975 -0.1303 -0.5112  0.1489
    2MOL    C26 3271   3.389   3.043   1.063  0.4146  0.4234 -0.2760
    2MOL     O3 3272   3.445   2.941   1.027 -0.5636  0.1423 -0.1870
    2MOL    C27 3273   2.421   3.209   2.116  0.4298 -1.2443 -0.1714
    2MOL    C28 3274   2.531   3.175   2.031  0.0225  0.0364 -0.5433
    2MOL    C29 3275   2.321   3.299   2.061  1.4403 -0.0477 -0.5433
    2MOL    C30 3276   2.532   3.208   1.899 -0.0148  0.2144  0.6481
    2MOL    C31 3277   2.320   3.335   1.924  0.3026  1.0156 -0.9803
    2MOL    C32 3278   2.418   3.271   1.840  0.7017 -0.3165 -0.0639
    2MOL    C33 3279   2.401   3.261   1.703  0.7628  0.2974  0.5370
    2MOL     N5 3280   2.318   3.167   1.636  0.5738  0.3721  0.3598
    2MOL     N6 3281   2.467   3.336   1.605  0.0906  0.4492 -0.1393
    2MOL    C34 3282   2.317   3.209   1.504  0.3287  0.1494 -0.5968
    2MOL    C35 3283   2.402   3.311   1.490  0.1175 -0.5295  1.2191
    2MOL    C36 3284   2.561   3.452   1.634  0.0908 -0.6752  0.0595
    2MOL     H1 3285   2.621   3.480   1.543  3.6992  0.0624 -1.3482
    2MOL     H2 3286   2.633   3.431   1.708  0.1572  1.9680  0.1091
    2MOL     H3 3287   2.508   3.534   1.676  0.9503 -0.5251  0.1759
    2MOL    C37 3288   2.245   3.053   1.683 -0.4576  0.1044  0.2272
    2MOL    C38 3289   2.283   2.999   1.806 -0.4878  0.2102  0.2530
    2MOL    C39 3290   2.227   2.881   1.845 -0.3483  0.5985  0.0837
    2MOL    C40 3291   2.140   2.800   1.762  0.7683  0.1597 -0.5843
    2MOL    C41 3292   2.099   2.855   1.638  0.1876  0.1408  0.2120
    2MOL    C42 3293   2.156   2.975   1.597  0.7122 -0.1663 -0.2296
    2MOL    C43 3294   2.432   3.370   1.353  0.1793 -0.4323 -0.7228
    2MOL     F7 3295   2.542   3.457   1.335  0.9178 -0.3220  0.4846
    2MOL     F8 3296   2.324   3.426   1.305  0.6804  0.1761 -0.8838
    2MOL     F9 3297   2.459   3.262   1.276 -0.2702  0.3184  0.4369
    2MOL    C44 3298   2.437   3.234   2.470 -0.5412  0.2108 -0.5398
    2MOL    C45 3299   2.313   3.201   2.450  0.9443  0.3814  0.4288
    2MOL    C46 3300   2.200   3.216   2.545 -0.6789  0.4360  0.3574
    2MOL    F10 3301   2.090   3.287   2.494 -0.2804 -0.2002  0.0339
    2MOL    F11 3302   2.160   3.093   2.582  0.3289 -0.3339 -0.0022
    2MOL     H4 3303   2.491   3.276   2.558  0.4338  1.5124  0.9981
    2MOL     H5 3304   2.718   3.064   2.422  1.2582 -0.7463  2.1099
    2MOL     H6 3305   2.930   3.060   2.289 -0.3803  1.4746 -0.5881
    2MOL     H7 3306   2.594   3.421   2.198  1.5875  1.4756  0.4714
    2MOL     H8 3307   2.782   3.401   2.063  1.0274  2.7088 -1.3681
    2MOL     H9 3308   3.236   3.360   1.827 -0.4624  3.0757 -0.2831
    2MOL    H10 3309   3.076   3.087   1.525  0.2167  0.0150  0.6166
    2MOL    H11 3310   2.928   2.995   1.696  1.9282  2.3065 -0.0731
    2MOL    H12 3311   3.391   3.085   1.539  0.1375  2.8117  0.6820
    2MOL    H13 3312   3.187   3.365   1.281  0.8897 -1.8696 -1.1788
    2MOL    H14 3313   3.451   2.951   1.344  0.0946 -2.7337  0.9953
    2MOL     O4 3314   3.197   3.321   0.993  0.0550  0.0819 -0.0091
    2MOL    H15 3315   2.615   3.110   2.060 -0.2909 -0.5071 -4.5498
    2MOL    H16 3316   2.612   3.169   1.837  4.1391  0.1243  1.0451
    2MOL    H17 3317   2.244   3.338   2.130 -2.6273 -0.6246 -1.2718
    2MOL    H18 3318   2.264   2.855   1.939 -0.4106  2.6358 -0.0065
    2MOL    H19 3319   2.356   3.048   1.869  1.8172 -2.4624  1.8598
    2MOL    H20 3320   2.037   2.802   1.561 -0.2655 -1.2991 -1.0427
    2MOL    H21 3321   2.120   3.016   1.506 -1.8986 -0.7937 -1.2859
    2MOL    H22 3322   2.251   3.151   1.433 -2.3252  1.9131  2.2516
    2MOL    H23 3323   2.238   3.388   1.881 -2.9651 -2.8392 -1.3369
    2MOL    F12 3324   2.236   3.279   2.659 -0.0322 -0.4102  0.1256
    2MOL    C47 3325   2.169   3.106   2.273  0.0887 -0.7015 -0.3539
    2MOL    H24 3326   2.163   3.096   2.168  0.6147 -1.6760  0.1926
    2MOL    H25 3327   2.094   3.182   2.301  0.6967 -0.4508  3.4160
    2MOL    H26 3328   2.145   3.013   2.330  0.0991 -0.0942  3.1382
    2MOL     N1 3329   3.773   2.790   0.939 -0.2091  0.2199 -0.3746
    2MOL     N2 3330   3.660   2.608   1.023  0.2658  0.1087 -0.3091
    2MOL     C1 3331   3.680   2.689   0.900 -0.1816  0.5199  0.0901
    2MOL     C2 3332   3.573   2.497   1.050  0.3196  0.0181 -0.2644
    2MOL     C3 3333   3.442   2.507   1.008  0.3814  0.4139 -0.4874
    2MOL     C4 3334   3.354   2.398   1.038 -0.4609  0.0283  0.4654
    2MOL     C5 3335   3.398   2.279   1.094 -0.3146 -0.0477  0.4004
    2MOL     C6 3336   3.531   2.262   1.123 -0.3016 -0.0220  0.4168
    2MOL     C7 3337   3.619   2.372   1.099  0.1037 -0.6893  0.3950
    2MOL     N3 3338   3.303   2.187   1.132  0.0937 -0.4294 -0.2391
    2MOL     C8 3339   3.305   2.059   1.081 -0.2161  0.2899 -0.3291
    2MOL     C9 3340   3.187   1.994   1.141  0.0426 -0.2519  0.2647
    2MOL    C10 3341   3.124   2.081   1.228  0.9031  0.9958 -0.0731
    2MOL    C11 3342   3.209   2.205   1.238 -0.0039 -0.6874 -0.0067
    2MOL     O1 3343   3.203   2.293   1.321 -0.2218  0.2091  0.2920
    2MOL    C12 3344   3.140   1.864   1.116  0.0223  0.1907  0.1885
    2MOL    C13 3345   3.017   1.825   1.176  0.2395 -0.7700 -0.2937
    2MOL    C14 3346   2.948   1.917   1.259 -0.0094  0.4096  0.1570
    2MOL    C15 3347   3.006   2.042   1.291 -0.7650 -0.6112  0.0971
    2MOL    C16 3348   3.091   1.593   1.227  0.0220  0.1154 -0.4548
    2MOL    C17 3349   3.138   1.469   1.173  0.7255  0.2955 -0.2474
    2MOL    C18 3350   3.253   1.402   1.227  0.1696 -0.4473 -0.1155
    2MOL    C19 3351   3.167   1.643   1.332 -0.4471  0.2992 -0.0116
    2MOL    C20 3352   3.315   1.449   1.335  0.2011 -0.1193 -0.3849
    2MOL    C21 3353   3.277   1.574   1.386 -0.2564 -0.9965 -0.6365
    2MOL    C22 3354   2.978   1.672   1.156  0.7712 -0.1059 -0.0077
    2MOL    C23 3355   2.848   1.638   1.240 -0.1476  0.1356 -0.7667
    2MOL     F1 3356   2.868   1.646   1.373 -0.0345  0.9012 -0.5582
    2MOL     F2 3357   2.822   1.503   1.220  0.4277 -0.1464  0.1129
    2MOL     F3 3358   2.727   1.693   1.205  0.3345  0.2578  0.2691
    2MOL    C24 3359   2.959   1.639   1.006  0.4522 -0.4402 -0.3540
    2MOL     F4 3360   2.879   1.736   0.958 -0.4596 -0.2840  0.2160
    2MOL     F5 3361   2.902   1.517   0.980 -0.1310  0.0803  0.2232
    2MOL     F6 3362   3.072   1.651   0.933  0.1187 -0.4339  0.0871
    2MOL     O2 3363   3.386   2.005   1.012 -0.6982 -0.4160  0.2393
    2MOL    C25 3364   3.325   1.275   1.184 -0.0378  0.0936 -0.5770
    2MOL     N4 3365   3.440   1.278   1.260  0.9111 -0.0334  0.0137
    2MOL    C26 3366   3.441   1.376   1.354 -0.8595  1.2580  0.2750
    2MOL     O3 3367   3.533   1.398   1.430 -0.0323  0.1493  0.0959
    2MOL    C27 3368   3.610   2.701   0.783 -0.5965 -0.3345  0.2109
    2MOL    C28 3369   3.484   2.746   0.785 -0.3623  0.2186  0.3003
    2MOL    C29 3370   3.692   2.687   0.665 -0.2035  0.1013 -0.3240
    2MOL    C30 3371   3.425   2.781   0.662  0.2843  0.7257  0.8380
    2MOL    C31 3372   3.641   2.727   0.542  0.0287 -0.2164 -0.2230
    2MOL    C32 3373   3.503   2.785   0.544  0.2062 -0.2428  1.0011
    2MOL    C33 3374   3.458   2.864   0.437  0.8409  0.5384  0.1831
    2MOL     N5 3375   3.387   2.987   0.449  0.2043 -0.4595 -0.0700
    2MOL     N6 3376   3.491   2.861   0.302  0.4387 -0.9352 -0.3437
    2MOL    C34 3377   3.381   3.047   0.325 -0.5182  0.1510 -0.0545
    2MOL    C35 3378   3.431   2.965   0.235 -0.0088  0.4739 -0.0671
    2MOL    C36 3379   3.530   2.733   0.234 -0.1824  0.4178 -0.4251
    2MOL     H1 3380   3.484   2.723   0.137 -0.5456 -0.3266  3.2816
    2MOL     H2 3381   3.507   2.649   0.305 -1.6966  0.3285 -1.4967
    2MOL     H3 3382   3.640   2.728   0.220 -0.1789  0.3817 -3.2230
    2MOL    C37 3383   3.377   3.057   0.564  0.1743 -0.4271  0.2527
    2MOL    C38 3384   3.493   3.078   0.643  0.2596 -0.0268  0.1692
    2MOL    C39 3385   3.473   3.125   0.776 -0.0970 -0.2045  0.7544
    2MOL    C40 3386   3.346   3.128   0.836 -0.7596 -0.7768 -0.2620
    2MOL    C41 3387   3.234   3.106   0.750 -0.5124 -0.2307  0.1093
    2MOL    C42 3388   3.249   3.071   0.615  0.2382  0.3768  0.0311
    2MOL    C43 3389   3.439   2.995   0.082 -0.6494  0.4589  0.7517
    2MOL     F7 3390   3.437   2.891  -0.008 -0.1748  0.7970  0.4088
    2MOL     F8 3391   3.552   3.057   0.049 -0.4279  0.1629  0.6334
    2MOL     F9 3392   3.346   3.079   0.038  0.0107 -0.1578 -0.8854
    2MOL    C44 3393   3.739   2.672   1.122  0.7707  0.5019 -0.3910
    2MOL    C45 3394   3.810   2.771   1.071 -0.0444  0.1951  0.2860
    2MOL    C46 3395   3.893   2.875   1.145  0.3681 -0.0880 -0.3717
    2MOL    F10 3396   3.996   2.919   1.062 -0.0216  0.6107  0.1775
    2MOL    F11 3397   3.815   2.985   1.178 -0.0588 -0.4053  0.1251
    2MOL     H4 3398   3.731   2.635   1.228 -2.3509 -1.8532  0.1995
    2MOL     H5 3399   3.404   2.590   0.951  3.3086 -1.2877  4.0993
    2MOL     H6 3400   3.251   2.420   1.016  1.5793 -0.2993 -1.3844
    2MOL     H7 3401   3.729   2.354   1.128 -0.6429  0.1338  0.6220
    2MOL     H8 3402   3.561   2.166   1.167 -0.2214  0.5663  0.5152
    2MOL     H9 3403   3.196   1.798   1.051  2.7112  0.1697  1.2722
    2MOL    H10 3404   2.855   1.887   1.303 -1.3181 -0.1557  1.8435
    2MOL    H11 3405   2.958   2.112   1.358  2.7707  0.7605 -0.0850
    2MOL    H12 3406   3.141   1.742   1.366 -2.5770  0.0361 -1.4763
    2MOL    H13 3407   3.099   1.431   1.080  1.1539 -0.1120  2.8521
    2MOL    H14 3408   3.337   1.618   1.463  1.8177  0.7858 -2.6697
    2MOL     O4 3409   3.305   1.209   1.083 -0.5529 -0.0440  0.0719
    2MOL    H15 3410   3.437   2.775   0.878  1.1957  1.5167 -2.3493
    2MOL    H16 3411   3.326   2.820   0.667  2.3389  1.6213  3.1377
    2MOL    H17 3412   3.788   2.636   0.678  2.8417 -2.0379 -0.4256
    2MOL    H18 3413   3.563   3.148   0.835 -1.7956 -2.0201 -2.4787
    2MOL    H19 3414   3.594   3.053   0.612 -2.0474 -0.0283 -1.9333
    2MOL    H20 3415   3.127   3.109   0.783  2.0326 -1.3024 -3.4849
    2MOL    H21 3416   3.165   3.054   0.549  0.4838  1.8261 -1.6798
    2MOL    H22 3417   3.345   3.152   0.317  3.1706  0.2362 -0.8922
    2MOL    H23 3418   3.714   2.734   0.460 -2.2384 -0.9727 -1.4085
    2MOL    F12 3419   3.948   2.829   1.255 -0.2001 -0.2770  0.1065
    2MOL    C47 3420   3.751   2.926   0.877  0.0150 -0.4449  0.0225
    2MOL    H24 3421   3.845   2.988   0.882  1.0976 -0.1225  3.0679
    2MOL    H25 3422   3.679   2.984   0.929  0.9520  1.2772  1.3673
    2MOL    H26 3423   3.710   2.912   0.775 -0.4482 -0.4438 -1.5348
    2MOL     N1 3424   3.979   0.950   1.898 -0.6635 -0.3232 -0.8025
    2MOL     N2 3425   4.192   1.022   1.845 -0.6436  0.1996 -0.1325
    2MOL     C1 3426   4.068   0.975   1.788 -0.6190  0.0565 -0.1367
    2MOL     C2 3427   4.310   1.050   1.785  0.1935  0.5070  0.2394
    2MOL     C3 3428   4.354   0.990   1.664 -0.0076 -0.1177  0.5059
    2MOL     C4 3429   4.481   1.022   1.609 -0.4115  0.0374 -0.1761
    2MOL     C5 3430   4.541   1.143   1.660 -0.3381 -0.0009  0.3048
    2MOL     C6 3431   4.498   1.215   1.775  0.0619  0.1835  0.6579
    2MOL     C7 3432   4.379   1.164   1.838  1.1360  0.1335 -0.0889
    2MOL     N3 3433   4.664   1.190   1.606 -0.1354  0.1875  0.0331
    2MOL     C8 3434   4.783   1.207   1.680 -0.1407  0.0856 -0.4211
    2MOL     C9 3435   4.883   1.255   1.578 -0.3674 -0.6841  0.0442
    2MOL    C10 3436   4.830   1.257   1.454  0.8096 -0.1648 -0.3643
    2MOL    C11 3437   4.681   1.227   1.475 -1.2308 -0.6792  0.2128
    2MOL     O1 3438   4.598   1.237   1.384 -0.0041  0.0931 -0.4508
    2MOL    C12 3439   5.015   1.271   1.600 -0.2800 -0.2915  0.5494
    2MOL    C13 3440   5.095   1.294   1.488 -0.4028  0.5914  0.4414
    2MOL    C14 3441   5.039   1.310   1.364  0.8540 -0.6872  0.4835
    2MOL    C15 3442   4.899   1.291   1.336  0.4393  0.4010 -0.6294
    2MOL    C16 3443   5.326   1.257   1.394 -0.2254  0.5807 -0.6599
    2MOL    C17 3444   5.419   1.326   1.316 -0.2935  0.3853  0.0213
    2MOL    C18 3445   5.499   1.261   1.226  0.1811 -1.0401  0.6353
    2MOL    C19 3446   5.314   1.113   1.378 -0.2091 -0.1326 -0.5285
    2MOL    C20 3447   5.480   1.122   1.204 -0.2142  0.4321 -0.2526
    2MOL    C21 3448   5.394   1.049   1.281 -0.2413 -0.3874 -0.1750
    2MOL    C22 3449   5.241   1.322   1.507  0.5176 -0.1122 -0.3380
    2MOL    C23 3450   5.249   1.480   1.503  0.5042 -0.0903 -0.7635
    2MOL     F1 3451   5.155   1.525   1.593 -0.4391 -0.3461 -0.1765
    2MOL     F2 3452   5.218   1.538   1.385  0.0304  0.1014  0.3964
    2MOL     F3 3453   5.371   1.528   1.539 -0.7428 -0.6835 -0.4790
    2MOL    C24 3454   5.301   1.269   1.641 -0.0453  0.0686  0.5588
    2MOL     F4 3455   5.434   1.292   1.630 -0.4475  0.4539 -0.0100
    2MOL     F5 3456   5.295   1.135   1.655 -0.0335  0.3199 -0.2171
    2MOL     F6 3457   5.271   1.330   1.761  0.5703 -0.0961  0.4768
    2MOL     O2 3458   4.800   1.183   1.798 -0.4085  0.5261 -0.6138
    2MOL    C25 3459   5.607   1.304   1.139 -0.0004 -0.0291 -0.2282
    2MOL     N4 3460   5.657   1.189   1.079  0.0064 -0.3546 -0.1699
    2MOL    C26 3461   5.588   1.073   1.114 -0.7210  0.1898 -0.5229
    2MOL     O3 3462   5.625   0.959   1.089 -0.3660 -0.1268  0.0258
    2MOL    C27 3463   4.048   0.982   1.651 -0.5628  0.4473 -0.2911
    2MOL    C28 3464   4.008   0.870   1.584 -0.5743  0.1641 -0.6172
    2MOL    C29 3465   4.078   1.094   1.572 -0.3798 -0.4649 -0.4621
    2MOL    C30 3466   3.984   0.866   1.453  0.1274  0.3880  0.2975
    2MOL    C31 3467   4.067   1.092   1.432 -0.2686 -0.2558 -0.4588
    2MOL    C32 3468   4.025   0.974   1.372 -0.1525  0.0756 -0.4565
    2MOL    C33 3469   4.019   0.954   1.233  0.2556  0.1950 -0.0595
    2MOL     N5 3470   3.925   1.011   1.140 -0.0551  0.3445  0.1742
    2MOL     N6 3471   4.110   0.869   1.161 -0.0773 -0.1851 -0.7542
    2MOL    C34 3472   3.987   0.993   1.016  0.0233 -0.0117  0.1698
    2MOL    C35 3473   4.090   0.906   1.025 -0.0717 -0.5397 -0.2484
    2MOL    C36 3474   4.237   0.825   1.223 -0.4528  0.3595  0.5042
    2MOL     H1 3475   4.286   0.748   1.159 -0.4673  0.8828 -0.9750
    2MOL     H2 3476   4.217   0.775   1.324 -1.6049 -0.3796  0.4857
    2MOL     H3 3477   4.315   0.905   1.233 -1.7940 -1.4544 -0.4861
    2MOL    C37 3478   3.808   1.081   1.175 -0.0979  0.2849 -0.1895
    2MOL    C38 3479   3.720   1.021   1.263  0.5186 -0.5321  0.6121
    2MOL    C39 3480   3.593   1.074   1.293  0.8102  1.0779 -1.0114
    2MOL    C40 3481   3.557   1.195   1.230 -0.1090 -0.2368  0.5862
    2MOL    C41 3482   3.656   1.265   1.152  0.1733  0.6717 -0.2733
    2MOL    C42 3483   3.783   1.208   1.129 -0.0758 -0.3094 -0.2223
    2MOL    C43 3484   4.174   0.857   0.912 -0.1326  0.1670 -0.7614
    2MOL     F7 3485   4.266   0.767   0.942 -0.1410 -0.0247 -0.7676
    2MOL     F8 3486   4.226   0.961   0.844  0.4797 -0.6176 -0.2157
    2MOL     F9 3487   4.088   0.801   0.826 -0.4676 -0.3110  0.5126
    2MOL    C44 3488   4.164   1.043   1.981  0.5535  0.0823  0.3147
    2MOL    C45 3489   4.040   1.003   2.013 -0.3460  0.5487 -0.4440
    2MOL    C46 3490   3.983   0.994   2.146 -0.6866 -0.1960  0.3190
    2MOL    F10 3491   3.865   1.060   2.142  0.0377  0.4497 -0.8053
    2MOL    F11 3492   3.966   0.865   2.181  0.0942 -0.6371  0.0058
    2MOL     H4 3493   4.245   1.081   2.044  1.5339  0.4398 -3.1751
    2MOL     H5 3494   4.302   0.909   1.621  2.3858 -0.6408  1.9369
    2MOL     H6 3495   4.526   0.968   1.529  1.0291 -1.5578 -0.7868
    2MOL     H7 3496   4.343   1.219   1.924  0.8092  1.9722  0.8131
    2MOL     H8 3497   4.552   1.301   1.808 -2.6590  0.6645 -1.0749
    2MOL     H9 3498   5.050   1.268   1.702 -2.6013  0.7608  1.9626
    2MOL    H10 3499   5.103   1.348   1.284  0.6901 -0.0997  3.6028
    2MOL    H11 3500   4.866   1.300   1.233  1.3299 -1.3502 -2.5979
    2MOL    H12 3501   5.245   1.056   1.438 -0.7530 -1.6896 -2.3362
    2MOL    H13 3502   5.427   1.430   1.322 -0.6376  1.8436 -0.4101
    2MOL    H14 3503   5.388   0.943   1.267 -1.0306  1.9635 -0.6906
    2MOL     O4 3504   5.645   1.420   1.121  0.2608  0.0730  0.3446
    2MOL    H15 3505   3.984   0.784   1.650  0.9352 -1.2721  2.4138
    2MOL    H16 3506   3.936   0.775   1.421  0.7952  0.7514 -0.7618
    2MOL    H17 3507   4.115   1.182   1.625 -0.4402  0.0679  0.4480
    2MOL    H18 3508   3.526   1.009   1.363 -2.0229 -0.9658  0.8791
    2MOL    H19 3509   3.740   0.914   1.292 -0.9817 -1.6836  0.9851
    2MOL    H20 3510   3.641   1.369   1.116  2.5270  3.3158 -2.0064
    2MOL    H21 3511   3.859   1.259   1.070  1.0144 -0.3264  1.1655
    2MOL    H22 3512   3.946   1.031   0.928  1.5536 -1.9151 -0.4512
    2MOL    H23 3513   4.100   1.181   1.376  1.8599 -2.6811  3.6760
    2MOL    F12 3514   4.058   1.041   2.244  0.4749 -0.2037 -0.0959
    2MOL    C47 3515   3.830   0.935   1.875 -0.2504 -0.2952 -0.2223
    2MOL    H24 3516   3.778   1.028   1.865 -0.1032  1.1189 -1.9383
    2MOL    H25 3517   3.781   0.883   1.959 -1.6240 -1.8846 -1.1304
    2MOL    H26 3518   3.820   0.870   1.786 -0.7179 -1.1783 -3.0431
    2MOL     N1 3519   5.800   0.816   1.341  0.4277 -0.0321 -0.0768
    2MOL     N2 3520   5.665   0.677   1.228  0.3010  0.5003 -0.2785
    2MOL     C1 3521   5.794   0.741   1.220 -0.9813  0.3619  0.5889
    2MOL     C2 3522   5.625   0.559   1.158  0.4326  0.1633  0.4919
    2MOL     C3 3523   5.605   0.561   1.022 -0.2258 -0.5134  0.3780
    2MOL     C4 3524   5.579   0.447   0.950  0.1429 -0.3542  0.1196
    2MOL     C5 3525   5.562   0.329   1.022 -0.5781  0.2592  0.0661
    2MOL     C6 3526   5.552   0.327   1.164 -0.1577  0.5723 -0.2941
    2MOL     C7 3527   5.598   0.444   1.229  0.1365  0.7378 -1.1163
    2MOL     N3 3528   5.550   0.209   0.954  0.4617  0.1308 -0.2896
    2MOL     C8 3529   5.617   0.091   0.987  0.7250 -0.4123 -0.5491
    2MOL     C9 3530   5.557  -0.011   0.896  0.4303 -0.2339 -0.0304
    2MOL    C10 3531   5.458   0.049   0.820  0.0528 -0.4918 -0.8042
    2MOL    C11 3532   5.447   0.190   0.860  0.4809 -0.4084  0.3896
    2MOL     O1 3533   5.357   0.267   0.831 -0.1336 -0.0126 -0.1015
    2MOL    C12 3534   5.590  -0.143   0.874 -0.5893  0.9108  0.1838
    2MOL    C13 3535   5.514  -0.222   0.779  0.0215 -0.6677 -0.1436
    2MOL    C14 3536   5.405  -0.157   0.701  0.0402 -0.0953  0.2130
    2MOL    C15 3537   5.376  -0.025   0.727 -0.5191  0.3027 -0.0968
    2MOL    C16 3538   5.492  -0.448   0.897  0.2662  0.3665  0.5088
    2MOL    C17 3539   5.539  -0.576   0.925  0.4212  0.5730 -0.0284
    2MOL    C18 3540   5.491  -0.642   1.037 -0.2784  0.1731  0.2044
    2MOL    C19 3541   5.403  -0.389   0.986  0.9388  0.5915  0.4042
    2MOL    C20 3542   5.415  -0.577   1.131  0.2516 -0.1791  0.2700
    2MOL    C21 3543   5.362  -0.452   1.109  0.0584  0.4797  0.0194
    2MOL    C22 3544   5.538  -0.377   0.765  0.5569  0.5542  0.3268
    2MOL    C23 3545   5.459  -0.434   0.646 -1.0251 -0.3976  0.1285
    2MOL     F1 3546   5.495  -0.565   0.631  0.2967 -0.0945 -0.6879
    2MOL     F2 3547   5.486  -0.366   0.531 -0.2924  0.2127 -0.3499
    2MOL     F3 3548   5.327  -0.434   0.677  0.3283  0.4349  0.0049
    2MOL    C24 3549   5.694  -0.400   0.749 -0.0181 -0.2744 -0.0845
    2MOL     F4 3550   5.742  -0.304   0.672 -0.3192  0.4869 -0.4244
    2MOL     F5 3551   5.726  -0.518   0.693 -0.2657 -0.1587 -0.1258
    2MOL     F6 3552   5.747  -0.396   0.867 -0.0092 -0.2780  0.2996
    2MOL     O2 3553   5.702   0.084   1.081 -0.6155 -0.0466 -0.2440
    2MOL    C25 3554   5.505  -0.779   1.086 -0.0268  0.4785  0.4178
    2MOL     N4 3555   5.436  -0.794   1.204 -0.4431 -0.0949 -0.1653
    2MOL    C26 3556   5.392  -0.670   1.246 -0.6223  0.4489 -0.5572
    2MOL     O3 3557   5.358  -0.647   1.360 -0.5109  1.0907  0.1510
    2MOL    C27 3558   5.882   0.767   1.113  0.7811 -0.5265 -0.6326
    2MOL    C28 3559   5.826   0.800   0.989  0.1768 -0.4961 -0.0822
    2MOL    C29 3560   6.021   0.741   1.123  0.0301  0.7812  0.0626
    2MOL    C30 3561   5.912   0.831   0.885  0.1661 -0.0484  0.2533
    2MOL    C31 3562   6.105   0.769   1.015  0.0399  0.5460  0.8477
    2MOL    C32 3563   6.053   0.827   0.895 -0.0211  0.8617  0.4808
    2MOL    C33 3564   6.135   0.898   0.810 -0.3451 -0.3781  0.0591
    2MOL     N5 3565   6.115   1.042   0.805 -0.6550  0.3043  0.0421
    2MOL     N6 3566   6.271   0.878   0.777  0.2957 -0.1791  0.2339
    2MOL    C34 3567   6.241   1.093   0.776 -0.2004 -0.2438  0.0535
    2MOL    C35 3568   6.329   1.003   0.770 -0.7296  0.3664 -0.4693
    2MOL    C36 3569   6.313   0.771   0.680 -0.0921  0.3333  0.7685
    2MOL     H1 3570   6.348   0.827   0.590 -0.3644  2.3118  0.5833
    2MOL     H2 3571   6.241   0.693   0.655 -0.8359 -1.0713 -1.7673
    2MOL     H3 3572   6.405   0.719   0.724  1.2578  1.0859  0.9564
    2MOL    C37 3573   6.009   1.103   0.867  0.2022 -0.9257 -0.6351
    2MOL    C38 3574   6.003   1.091   1.011 -0.0348  0.7526 -0.2323
    2MOL    C39 3575   5.888   1.132   1.082  0.3910  0.4427  0.1551
    2MOL    C40 3576   5.780   1.183   1.010  0.5911 -0.2429 -0.7582
    2MOL    C41 3577   5.789   1.200   0.869  0.1523  0.2132  0.0443
    2MOL    C42 3578   5.910   1.169   0.801  0.1459 -0.2207 -0.4199
    2MOL    C43 3579   6.475   1.025   0.763 -0.0855  0.7914 -0.3132
    2MOL     F7 3580   6.523   0.985   0.644 -0.6152 -0.0479  0.1159
    2MOL     F8 3581   6.539   0.945   0.847  0.1685  0.1826 -0.1234
    2MOL     F9 3582   6.509   1.147   0.797  0.3886  0.1256 -0.4634
    2MOL    C44 3583   5.590   0.744   1.320 -0.1046 -0.1574 -0.9465
    2MOL    C45 3584   5.671   0.826   1.387  0.1499 -0.2299 -0.0743
    2MOL    C46 3585   5.637   0.917   1.496  1.0004  0.1949 -0.8805
    2MOL    F10 3586   5.664   1.050   1.462 -0.2059 -0.2543 -0.1306
    2MOL    F11 3587   5.504   0.906   1.531 -0.1883  0.7040 -0.4637
    2MOL     H4 3588   5.483   0.721   1.340 -0.0438  1.3194  0.0218
    2MOL     H5 3589   5.621   0.654   0.956 -2.1151  0.6158 -2.5913
    2MOL     H6 3590   5.569   0.452   0.837  1.1465 -1.5187  1.0607
    2MOL     H7 3591   5.608   0.431   1.335  2.5113  1.1119  2.0991
    2MOL     H8 3592   5.534   0.237   1.218  0.5368  1.4247  0.2350
    2MOL     H9 3593   5.667  -0.189   0.942  0.2604  0.1868  1.4641
    2MOL    H10 3594   5.334  -0.209   0.636 -2.8340  2.0062  1.2635
    2MOL    H11 3595   5.292   0.028   0.677 -0.3337 -0.8022  0.5144
    2MOL    H12 3596   5.354  -0.289   0.966 -1.8979  0.8550  3.4837
    2MOL    H13 3597   5.589  -0.634   0.847  0.1140  0.3943  0.1158
    2MOL    H14 3598   5.296  -0.391   1.172 -1.5067  0.9803  2.2566
    2MOL     O4 3599   5.572  -0.866   1.032 -0.1055  0.0065 -0.0932
    2MOL    H15 3600   5.718   0.808   0.981 -2.3916  0.2363  1.0210
    2MOL    H16 3601   5.871   0.883   0.793  0.4350 -1.0203  0.4841
    2MOL    H17 3602   6.065   0.697   1.214 -1.8363 -1.8098  0.7983
    2MOL    H18 3603   5.883   1.130   1.194 -2.6154  0.2753  1.2163
    2MOL    H19 3604   6.086   1.031   1.059 -0.1765 -1.2105 -1.4342
    2MOL    H20 3605   5.711   1.244   0.807 -1.1231  1.3044 -0.6775
    2MOL    H21 3606   5.926   1.180   0.690  1.2057 -0.3439 -2.0571
    2MOL    H22 3607   6.256   1.201   0.785  1.1410 -1.1312 -0.0820
    2MOL    H23 3608   6.211   0.748   1.027 -0.4688 -0.7859 -1.4713
    2MOL    F12 3609   5.706   0.881   1.607  0.7003  0.1123  0.1581
    2MOL    C47 3610   5.903   0.915   1.366 -0.0303  0.4318 -0.9959
    2MOL    H24 3611   5.928   0.929   1.472 -0.0602  0.9993  0.2706
    2MOL    H25 3612   5.860   1.014   1.345  2.0915 -3.0471 -2.0012
    2MOL    H26 3613   5.989   0.898   1.307 -3.2769  1.0618  0.4005
    2MOL     N1 3614   5.710  -0.594   1.467 -0.4353 -0.9736  0.3580
    2MOL     N2 3615   5.530  -0.475   1.547 -0.2347  0.3879 -0.4456
    2MOL     C1 3616   5.610  -0.595   1.567  0.5656  0.1129 -0.3638
    2MOL     C2 3617   5.444  -0.413   1.638 -0.3062 -0.3851  0.2232
    2MOL     C3 3618   5.418  -0.469   1.766  0.2378 -0.3341 -0.2290
    2MOL     C4 3619   5.330  -0.408   1.859  0.0662  0.7168 -0.7054
    2MOL     C5 3620   5.281  -0.283   1.833 -0.4596 -0.3466  0.0609
    2MOL     C6 3621   5.312  -0.226   1.708  0.0042 -1.6300 -0.2310
    2MOL     C7 3622   5.386  -0.290   1.607 -0.1512  0.6480 -0.0147
    2MOL     N3 3623   5.203  -0.211   1.924  0.1639  0.4335  0.1254
    2MOL     C8 3624   5.250  -0.092   1.977  0.4172  0.0821 -0.3082
    2MOL     C9 3625   5.128  -0.042   2.046 -0.8069 -0.2080  0.3914
    2MOL    C10 3626   5.030  -0.135   2.041 -0.7306  0.2182  0.2785
    2MOL    C11 3627   5.078  -0.253   1.960  0.4939  0.0009 -0.2738
    2MOL     O1 3628   5.022  -0.352   1.914 -0.0468 -0.3550 -0.1874
    2MOL    C12 3629   5.108   0.084   2.090  1.0839  0.1868  0.4902
    2MOL    C13 3630   4.980   0.129   2.138  0.1888 -0.3987 -0.0048
    2MOL    C14 3631   4.884   0.030   2.137 -0.3291  0.0651  1.0918
    2MOL    C15 3632   4.902  -0.103   2.083  0.1513  0.6194 -0.6712
    2MOL    C16 3633   4.834   0.309   2.038  0.8850 -0.1889  0.0095
    2MOL    C17 3634   4.723   0.394   2.069 -0.8638  0.3260  0.2064
    2MOL    C18 3635   4.612   0.394   1.983  0.1540 -0.2402 -0.3806
    2MOL    C19 3636   4.833   0.237   1.916  0.4598 -0.3286  0.2128
    2MOL    C20 3637   4.609   0.316   1.870  0.1480  0.2644 -0.6834
    2MOL    C21 3638   4.717   0.233   1.843 -0.0703  0.3418  0.0117
    2MOL    C22 3639   4.943   0.286   2.143  0.0016  0.6148 -0.0507
    2MOL    C23 3640   4.910   0.313   2.294  0.1838 -0.3469  0.5123
    2MOL     F1 3641   5.014   0.266   2.367  0.0580  0.5629 -0.0769
    2MOL     F2 3642   4.794   0.257   2.339  0.2429 -0.7079 -0.1090
    2MOL     F3 3643   4.894   0.442   2.327 -0.4226 -0.2762 -0.3620
    2MOL    C24 3644   5.050   0.393   2.109  0.1611  0.0716  0.1757
    2MOL     F4 3645   4.992   0.513   2.103 -0.3159 -0.0557  0.3884
    2MOL     F5 3646   5.114   0.384   1.993 -0.3162 -0.0197  0.3588
    2MOL     F6 3647   5.148   0.400   2.197 -0.0057 -0.1028  0.6508
    2MOL     O2 3648   5.358  -0.040   1.962  0.4923  0.4570 -0.1037
    2MOL    C25 3649   4.480   0.474   1.980  0.0745  0.7836  0.4406
    2MOL     N4 3650   4.410   0.417   1.877  0.4987 -0.9467  0.4584
    2MOL    C26 3651   4.481   0.327   1.801  0.5028 -0.1861  0.3495
    2MOL     O3 3652   4.438   0.274   1.703  0.3791 -0.2201  0.4118
    2MOL    C27 3653   5.574  -0.711   1.637  0.2543 -0.2569 -0.0691
    2MOL    C28 3654   5.443  -0.752   1.627  0.0692 -0.3807 -0.3189
    2MOL    C29 3655   5.661  -0.786   1.714  1.0840 -0.4510 -0.4144
    2MOL    C30 3656   5.399  -0.870   1.685  0.2197 -0.3532  0.3374
    2MOL    C31 3657   5.624  -0.912   1.772  0.0162  0.4354  0.2658
    2MOL    C32 3658   5.484  -0.957   1.754  0.4325  0.3384  0.4674
    2MOL    C33 3659   5.457  -1.089   1.756 -0.0890  0.1692  0.2258
    2MOL     N5 3660   5.414  -1.151   1.638  0.0033  0.2791  0.3288
    2MOL     N6 3661   5.521  -1.183   1.847 -0.0171  0.3589  0.1757
    2MOL    C34 3662   5.447  -1.283   1.663  0.1449 -0.1822  0.5322
    2MOL    C35 3663   5.501  -1.309   1.785  0.5018 -0.1390 -0.1243
    2MOL    C36 3664   5.494  -1.179   1.997 -0.6142  0.1915 -0.0971
    2MOL     H1 3665   5.578  -1.126   2.047 -1.6052  0.8625  0.3557
    2MOL     H2 3666   5.481  -1.281   2.028  1.5499  1.1884  0.1350
    2MOL     H3 3667   5.403  -1.122   2.010  0.4575 -0.3604 -0.2156
    2MOL    C37 3668   5.417  -1.086   1.514  0.5666  0.1933 -0.0117
    2MOL    C38 3669   5.543  -1.049   1.457  0.0361  0.0049  0.0593
    2MOL    C39 3670   5.542  -0.973   1.345 -0.1780 -0.6031  0.9497
    2MOL    C40 3671   5.432  -0.912   1.293  0.0113  0.0708  0.4069
    2MOL    C41 3672   5.306  -0.952   1.344 -0.2794  0.0813  0.4464
    2MOL    C42 3673   5.294  -1.039   1.453 -0.0045 -0.4970  0.0596
    2MOL    C43 3674   5.540  -1.446   1.834  0.1387  0.0412  0.0843
    2MOL     F7 3675   5.654  -1.450   1.911  0.6285  0.0088  0.0575
    2MOL     F8 3676   5.579  -1.503   1.717 -0.4632  0.2057  0.1127
    2MOL     F9 3677   5.444  -1.505   1.899 -0.2567 -0.0592 -0.1943
    2MOL    C44 3678   5.565  -0.433   1.416  0.1379 -0.6789  0.3283
    2MOL    C45 3679   5.671  -0.490   1.375 -0.1101 -0.1458 -0.6682
    2MOL    C46 3680   5.733  -0.460   1.236 -0.1275  0.1791  0.8908
    2MOL    F10 3681   5.659  -0.377   1.159 -0.4850  0.1716  0.5928
    2MOL    F11 3682   5.857  -0.399   1.238 -0.4501 -0.3614  0.2265
    2MOL     H4 3683   5.509  -0.356   1.361 -1.2634  0.2937  1.2729
    2MOL     H5 3684   5.472  -0.564   1.791 -0.4424  0.2170 -1.1802
    2MOL     H6 3685   5.309  -0.447   1.961  0.1283 -0.8719 -0.0571
    2MOL     H7 3686   5.400  -0.256   1.505  0.4601  0.5476 -0.2095
    2MOL     H8 3687   5.265  -0.129   1.687  2.3156 -0.8524  0.8247
    2MOL     H9 3688   5.184   0.154   2.076  0.6440 -2.0703 -1.8117
    2MOL    H10 3689   4.781   0.062   2.164 -1.9090  0.3692 -2.4510
    2MOL    H11 3690   4.821  -0.173   2.076  2.5442  0.8060  0.5856
    2MOL    H12 3691   4.912   0.177   1.884  0.7268  0.9791  0.9563
    2MOL    H13 3692   4.720   0.456   2.159 -0.9834 -1.2340 -0.4935
    2MOL    H14 3693   4.701   0.172   1.747 -0.5209 -0.2370 -2.6564
    2MOL     O4 3694   4.445   0.566   2.054  0.3766  0.3944 -0.4741
    2MOL    H15 3695   5.379  -0.684   1.570 -0.2036 -2.3237 -1.5778
    2MOL    H16 3696   5.296  -0.890   1.669  0.5077 -1.6617  1.0802
    2MOL    H17 3697   5.765  -0.751   1.728 -1.4897  0.4713 -2.4870
    2MOL    H18 3698   5.644  -0.944   1.307 -2.7622 -0.7310 -0.3018
    2MOL    H19 3699   5.630  -1.068   1.507  1.5239 -1.2214 -1.2715
    2MOL    H20 3700   5.217  -0.915   1.296  1.5842  0.7681  1.9302
    2MOL    H21 3701   5.199  -1.055   1.506  0.2210  0.5758  1.8825
    2MOL    H22 3702   5.417  -1.354   1.588 -0.4240  1.1206  2.3967
    2MOL    H23 3703   5.696  -0.976   1.820  1.1652  0.1954  0.2915
    2MOL    F12 3704   5.741  -0.575   1.163  0.4794  0.2621 -0.4790
    2MOL    C47 3705   5.777  -0.718   1.423  0.0958 -0.1309  0.1319
    2MOL    H24 3706   5.869  -0.731   1.475  0.3465 -0.6949  2.6166
    2MOL    H25 3707   5.798  -0.724   1.320  1.2887 -0.3241  2.2796
    2MOL    H26 3708   5.711  -0.801   1.452 -2.3582 -2.6012  2.0394
    2MOL     N1 3709   4.491   0.553   1.450  0.3920 -0.4135 -0.0952
    2MOL     N2 3710   4.512   0.327   1.412  0.2167  0.2617 -0.1838
    2MOL     C1 3711   4.421   0.440   1.395 -0.2395 -0.5573  0.1085
    2MOL     C2 3712   4.520   0.211   1.337 -0.2742  0.4822  0.0857
    2MOL     C3 3713   4.411   0.124   1.326  0.7250  0.0146  0.5551
    2MOL     C4 3714   4.423  -0.003   1.275 -0.3278 -0.4841  0.0863
    2MOL     C5 3715   4.547  -0.055   1.237 -0.0209 -0.1970 -0.8263
    2MOL     C6 3716   4.658   0.036   1.236  0.0785  0.4548 -0.1541
    2MOL     C7 3717   4.643   0.169   1.277 -0.3584  0.4204 -0.2105
    2MOL     N3 3718   4.565  -0.191   1.218  0.3244 -0.0842  0.2091
    2MOL     C8 3719   4.614  -0.239   1.096 -0.5017 -0.6256 -0.3681
    2MOL     C9 3720   4.682  -0.368   1.142 -0.2447  0.3171  0.2032
    2MOL    C10 3721   4.651  -0.393   1.274 -0.2451 -0.0927  0.2602
    2MOL    C11 3722   4.573  -0.279   1.325 -1.2429  0.0102  0.3517
    2MOL     O1 3723   4.524  -0.261   1.440 -0.3051 -0.5101  0.2542
    2MOL    C12 3724   4.758  -0.461   1.073  0.6700 -0.0220  0.0864
    2MOL    C13 3725   4.808  -0.579   1.129  0.3254  0.1866 -0.1263
    2MOL    C14 3726   4.788  -0.599   1.270 -0.5567 -0.1289  0.4692
    2MOL    C15 3727   4.709  -0.501   1.340 -0.8863  0.1043 -0.4373
    2MOL    C16 3728   4.924  -0.616   0.899  0.2227 -0.1509  0.4327
    2MOL    C17 3729   4.974  -0.484   0.880  0.1715  0.4976 -0.1520
    2MOL    C18 3730   4.982  -0.425   0.752  0.1143  0.3306 -0.0938
    2MOL    C19 3731   4.897  -0.689   0.783 -0.6036  0.4758 -0.1825
    2MOL    C20 3732   4.957  -0.499   0.639 -1.1203  0.7013  0.0075
    2MOL    C21 3733   4.920  -0.636   0.650  0.1719 -0.6471 -0.0264
    2MOL    C22 3734   4.900  -0.673   1.045  0.5072 -0.1629  0.0528
    2MOL    C23 3735   5.040  -0.675   1.114  0.4167  0.9508 -0.3759
    2MOL     F1 3736   5.141  -0.732   1.031 -0.0923  0.3775  0.1082
    2MOL     F2 3737   5.050  -0.742   1.232  0.4749  0.5932 -0.0126
    2MOL     F3 3738   5.091  -0.550   1.139  0.4186  0.5092  0.4732
    2MOL    C24 3739   4.839  -0.823   1.038 -0.0337 -0.5925 -0.7477
    2MOL     F4 3740   4.818  -0.870   1.157 -0.2337 -0.5378 -0.2773
    2MOL     F5 3741   4.926  -0.922   0.997 -0.2218 -0.2426 -0.1946
    2MOL     F6 3742   4.724  -0.825   0.970 -0.0204 -0.1997 -0.5344
    2MOL     O2 3743   4.634  -0.176   0.990 -0.2193 -0.8441  0.0816
    2MOL    C25 3744   5.002  -0.280   0.704  0.3458  0.2026 -0.1997
    2MOL     N4 3745   4.979  -0.289   0.569  0.1751 -0.1754 -0.3518
    2MOL    C26 3746   4.954  -0.412   0.525  0.1432 -0.5686 -0.1595
    2MOL     O3 3747   4.931  -0.436   0.409 -0.2819 -0.2381  0.0492
    2MOL    C27 3748   4.284   0.421   1.401  0.1944 -0.9186  0.5630
    2MOL    C28 3749   4.237   0.332   1.496  0.0302 -0.5554  0.4520
    2MOL    C29 3750   4.202   0.498   1.314 -0.0306 -0.1761 -0.2222
    2MOL    C30 3751   4.100   0.334   1.517 -0.6076 -0.6530  0.0329
    2MOL    C31 3752   4.066   0.504   1.344  0.4177 -0.3464  0.7905
    2MOL    C32 3753   4.017   0.431   1.448  0.2205 -0.2214 -0.4033
    2MOL    C33 3754   3.909   0.479   1.516  0.3515  0.1749 -0.4229
    2MOL     N5 3755   3.924   0.526   1.652  0.7474  0.0540  0.2872
    2MOL     N6 3756   3.779   0.513   1.473  0.1417 -0.9252  0.0043
    2MOL    C34 3757   3.814   0.609   1.670  0.5621 -0.3338 -0.6120
    2MOL    C35 3758   3.724   0.602   1.572  0.2360 -0.2781  0.0822
    2MOL    C36 3759   3.739   0.492   1.334  0.3560 -0.2593 -0.0004
    2MOL     H1 3760   3.623   0.487   1.336 -3.6297 -0.6227  1.2713
    2MOL     H2 3761   3.799   0.409   1.296  0.4521  1.3584 -2.4303
    2MOL     H3 3762   3.770   0.580   1.283 -1.0532 -0.3281 -0.9301
    2MOL    C37 3763   4.037   0.532   1.731  0.4037 -0.1543 -0.0821
    2MOL    C38 3764   4.152   0.595   1.680 -0.0092  0.4805  0.7020
    2MOL    C39 3765   4.276   0.564   1.734 -0.5982  0.0201  0.3664
    2MOL    C40 3766   4.284   0.465   1.836  0.0648  0.2258 -0.5302
    2MOL    C41 3767   4.173   0.409   1.891  0.3401 -0.5936 -0.2543
    2MOL    C42 3768   4.047   0.440   1.838  0.0608  0.3369 -0.5046
    2MOL    C43 3769   3.592   0.667   1.567 -0.2428  0.0958  0.4084
    2MOL     F7 3770   3.514   0.617   1.470  0.0317  0.4235  0.2798
    2MOL     F8 3771   3.608   0.803   1.555  0.3917 -0.0977  0.7276
    2MOL     F9 3772   3.523   0.651   1.676 -0.2043 -0.7687  0.2299
    2MOL    C44 3773   4.615   0.379   1.486 -0.1552  0.2523  0.4682
    2MOL    C45 3774   4.603   0.506   1.523  0.6296  0.0036 -0.6106
    2MOL    C46 3775   4.706   0.579   1.612 -0.1646 -0.4431  0.9305
    2MOL    F10 3776   4.834   0.519   1.621  0.1253 -0.1122 -0.6065
    2MOL    F11 3777   4.731   0.701   1.567 -0.2748  0.6510  0.2880
    2MOL     H4 3778   4.702   0.314   1.500 -0.1811 -1.6248 -2.3504
    2MOL     H5 3779   4.315   0.147   1.371  0.0488 -1.1314 -0.7426
    2MOL     H6 3780   4.335  -0.068   1.272 -1.0632 -1.5839 -2.8866
    2MOL     H7 3781   4.730   0.238   1.280  0.4398  1.5601 -2.9089
    2MOL     H8 3782   4.757   0.001   1.210  0.8601 -1.8995  0.8148
    2MOL     H9 3783   4.758  -0.431   0.971  1.3494  2.2061 -0.8100
    2MOL    H10 3784   4.830  -0.687   1.321  1.2048 -1.8861  0.8557
    2MOL    H11 3785   4.687  -0.513   1.442  0.1682 -0.7011 -2.8962
    2MOL    H12 3786   4.868  -0.795   0.796 -2.1317  0.3503  0.8873
    2MOL    H13 3787   5.002  -0.432   0.967  1.3258  0.0234 -0.5655
    2MOL    H14 3788   4.891  -0.690   0.558  0.2014  0.2785  0.6778
    2MOL     O4 3789   5.019  -0.178   0.774 -0.0882 -0.0555  0.9073
    2MOL    H15 3790   4.302   0.260   1.538 -1.0722 -0.3375  0.3041
    2MOL    H16 3791   4.080   0.275   1.604  0.6807  0.1435 -1.6575
    2MOL    H17 3792   4.240   0.558   1.241 -0.0420  1.6896  2.0947
    2MOL    H18 3793   4.363   0.606   1.695 -1.3731 -3.7893 -3.1299
    2MOL    H19 3794   4.147   0.654   1.593 -0.5481  0.9723  1.5290
    2MOL    H20 3795   4.180   0.350   1.982  0.0421  0.2182 -2.0871
    2MOL    H21 3796   3.956   0.395   1.877  0.1723  1.6728 -0.5675
    2MOL    H22 3797   3.804   0.661   1.764  3.0952 -1.6711  4.7263
    2MOL    H23 3798   4.013   0.584   1.302 -1.2745  0.2166  3.4170
    2MOL    F12 3799   4.658   0.588   1.741  0.5513 -0.0344 -0.6179
    2MOL    C47 3800   4.433   0.688   1.450  0.2636 -0.4559 -0.0399
    2MOL    H24 3801   4.484   0.748   1.530 -2.3223  2.3864  1.5343
    2MOL    H25 3802   4.330   0.703   1.489  3.5854 -0.9084  1.0424
    2MOL    H26 3803   4.450   0.735   1.347  0.1506  2.1955 -0.0017
    2MOL    H27 3804   4.970  -0.205   0.507  0.1109  0.7387 -0.2254
    3MOL     N1 3805   6.080   0.625   3.321  0.1567 -0.1202 -0.0739
    3MOL     N2 3806   6.110   0.791   3.173  0.9102  0.4581  0.2061
    3MOL     C1 3807   6.162   0.665   3.216  0.2269 -0.1776 -0.6466
    3MOL     C2 3808   6.188   0.899   3.129  0.1217 -0.1209 -0.3254
    3MOL     C3 3809   6.320   0.920   3.180  0.0120 -0.1122 -0.0143
    3MOL     C4 3810   6.385   1.038   3.146 -0.0840 -0.7385  0.1217
    3MOL     C5 3811   6.332   1.133   3.057  0.4400 -0.2721 -0.5127
    3MOL     C6 3812   6.202   1.111   3.006 -0.2927  0.0051  0.7457
    3MOL     C7 3813   6.130   0.995   3.041 -0.4676 -0.0670  0.6242
    3MOL     N3 3814   6.398   1.260   3.037 -0.1343 -0.2222  0.4834
    3MOL     C8 3815   6.429   1.317   2.911 -0.2251 -0.3733 -0.1502
    3MOL     C9 3816   6.487   1.451   2.938 -0.4364  0.0202 -0.0860
    3MOL    C10 3817   6.488   1.466   3.076  0.3703  0.1073  0.2518
    3MOL    C11 3818   6.429   1.346   3.137 -0.2090  0.8313 -0.0139
    3MOL     O1 3819   6.408   1.324   3.254  0.5184  0.4686 -0.6469
    3MOL    C12 3820   6.528   1.551   2.854 -0.1851 -0.4599  0.1708
    3MOL    C13 3821   6.588   1.673   2.905 -0.2664  0.4051 -0.2467
    3MOL    C14 3822   6.597   1.680   3.049 -0.5633 -0.0875  0.0682
    3MOL    C15 3823   6.549   1.581   3.134  1.5706  0.4534 -0.0299
    3MOL    C16 3824   6.732   1.740   2.700  0.3846 -0.0153  0.5203
    3MOL    C17 3825   6.780   1.607   2.709 -0.4319 -0.7153 -0.1734
    3MOL    C18 3826   6.848   1.549   2.599  1.0488 -0.6511 -0.1293
    3MOL    C19 3827   6.754   1.815   2.581  0.4938 -0.2082  0.3933
    3MOL    C20 3828   6.858   1.619   2.481  0.3129  0.1085 -0.4874
    3MOL    C21 3829   6.823   1.757   2.473 -0.4643  0.7589 -1.0417
    3MOL    C22 3830   6.636   1.786   2.809  0.0851 -0.0078 -0.4581
    3MOL    C23 3831   6.514   1.851   2.750  0.6793  0.2876 -0.5590
    3MOL     F1 3832   6.465   1.779   2.647  0.0908 -0.0943 -0.3935
    3MOL     F2 3833   6.525   1.975   2.707  0.0622 -0.4869  0.3633
    3MOL     F3 3834   6.416   1.852   2.835  0.2610 -0.2107  0.2972
    3MOL    C24 3835   6.722   1.896   2.884  0.6944 -0.6296 -0.3196
    3MOL     F4 3836   6.652   1.956   2.985  0.0565  0.0494 -0.1238
    3MOL     F5 3837   6.753   2.002   2.815 -0.3336 -0.1486  0.5579
    3MOL     F6 3838   6.839   1.854   2.937  0.2332 -0.3119 -0.1921
    3MOL     O2 3839   6.404   1.270   2.806  0.5823 -0.8608  0.3145
    3MOL    C25 3840   6.911   1.415   2.582 -0.1181 -0.5234 -0.1261
    3MOL     N4 3841   6.976   1.423   2.457  0.5058  0.2902 -0.0693
    3MOL    C26 3842   6.945   1.544   2.395 -0.1664  0.2441  0.7311
    3MOL     O3 3843   6.989   1.582   2.289 -0.1119 -0.2590 -0.1893
    3MOL    C27 3844   6.285   0.611   3.193  1.0108  0.2823  0.3600
    3MOL    C28 3845   6.378   0.593   3.298  0.4863 -0.1128 -0.2409
    3MOL    C29 3846   6.308   0.557   3.063 -0.1798  0.6115  1.4606
    3MOL    C30 3847   6.505   0.540   3.273 -0.4299 -0.3088 -0.3794
    3MOL    C31 3848   6.442   0.510   3.038 -0.5437  0.3706  0.1228
    3MOL    C32 3849   6.537   0.494   3.143 -0.3199 -0.2428  0.3639
    3MOL    C33 3850   6.649   0.411   3.124 -0.2469 -0.4142 -0.0713
    3MOL     N5 3851   6.790   0.442   3.152 -0.7740 -0.5386  0.0881
    3MOL     N6 3852   6.645   0.268   3.118 -0.2281 -0.2159 -0.4685
    3MOL    C34 3853   6.849   0.321   3.188  0.1336  0.3619  0.1183
    3MOL    C35 3854   6.765   0.218   3.168 -0.2234 -0.1410  0.1111
    3MOL    C36 3855   6.520   0.195   3.135 -0.1054 -0.3429  0.0699
    3MOL     H1 3856   6.517   0.109   3.207  1.1016  0.1494  2.7363
    3MOL     H2 3857   6.493   0.163   3.032 -1.4963  0.4769 -0.8387
    3MOL     H3 3858   6.431   0.257   3.154 -1.1894  0.5319 -2.8208
    3MOL    C37 3859   6.868   0.555   3.125 -0.5446 -0.7059 -0.3183
    3MOL    C38 3860   6.811   0.684   3.135 -0.4206 -0.5511  0.6313
    3MOL    C39 3861   6.884   0.804   3.117 -0.6261  0.0596 -0.5587
    3MOL    C40 3862   7.020   0.791   3.086  0.0038  0.0026  0.1743
    3MOL    C41 3863   7.082   0.665   3.077 -0.7429  0.0173  0.4556
    3MOL    C42 3864   7.003   0.547   3.089  0.6013  0.4559  0.1964
    3MOL    C43 3865   6.797   0.071   3.201  0.6537 -0.3404 -0.5789
    3MOL     F7 3866   6.794   0.046   3.337 -0.0494 -0.1405  0.0350
    3MOL     F8 3867   6.929   0.042   3.161 -0.0721 -0.3819 -0.2767
    3MOL     F9 3868   6.714  -0.015   3.141  0.0983 -0.4503  0.1222
    3MOL    C44 3869   5.980   0.799   3.232 -0.4916 -1.1922  0.2579
    3MOL    C45 3870   5.961   0.703   3.317  0.2990 -0.4472  0.2196
    3MOL    C46 3871   5.850   0.685   3.423  0.6792  0.3814  0.2097
    3MOL    F10 3872   5.767   0.585   3.372 -0.0907 -0.6317  0.6570
    3MOL    F11 3873   5.883   0.647   3.553 -0.1782  0.0387 -0.0914
    3MOL     H4 3874   5.904   0.884   3.219  0.3410 -0.8960  0.8101
    3MOL     H5 3875   6.371   0.862   3.249  1.2969 -0.5539 -3.7563
    3MOL     H6 3876   6.485   1.066   3.193 -1.2753 -1.5846 -3.7682
    3MOL     H7 3877   6.030   0.985   3.012  1.0314 -0.8125 -1.3884
    3MOL     H8 3878   6.162   1.181   2.931  1.0579 -1.1111  0.4073
    3MOL     H9 3879   6.525   1.535   2.745  0.7143  0.7934  1.2154
    3MOL    H10 3880   6.650   1.757   3.098 -0.9061 -0.6326 -2.5999
    3MOL    H11 3881   6.555   1.588   3.242  1.1390  0.4397  2.1388
    3MOL    H12 3882   6.722   1.918   2.565 -0.3582  0.7229  1.9981
    3MOL    H13 3883   6.776   1.549   2.806 -0.5906  1.0720 -0.0649
    3MOL    H14 3884   6.842   1.821   2.384 -0.7815  1.9846  2.2063
    3MOL     O4 3885   6.897   1.319   2.658 -0.1190  0.6954  0.5011
    3MOL    H15 3886   6.356   0.636   3.397  0.5224 -0.8109  1.4042
    3MOL    H16 3887   6.573   0.534   3.359 -2.1439  1.6602 -0.1197
    3MOL    H17 3888   6.233   0.557   2.984  0.1098 -0.4839  0.1669
    3MOL    H18 3889   6.830   0.897   3.123  1.5805  1.0677 -1.1936
    3MOL    H19 3890   7.081   0.882   3.084 -0.7433 -1.7113  0.7486
    3MOL    H20 3891   6.701   0.699   3.140 -1.2901 -1.0072 -2.1796
    3MOL    H21 3892   7.188   0.660   3.061  1.6825 -0.6838 -1.1007
    3MOL    H22 3893   7.055   0.448   3.077  1.0233 -0.2173 -0.1536
    3MOL    H23 3894   6.950   0.320   3.220 -1.0156  1.6749 -0.4190
    3MOL    H24 3895   6.473   0.481   2.945 -1.2915 -2.0746  1.0064
    3MOL    F12 3896   5.776   0.796   3.436  0.6425  0.3031 -0.2319
    3MOL    C47 3897   6.087   0.495   3.385 -0.5459  0.7382 -0.3844
    3MOL    H25 3898   6.183   0.447   3.383 -0.8801  1.2030  2.1221
    3MOL    H26 3899   6.014   0.433   3.325 -0.0074 -0.6554 -3.8167
    3MOL    H27 3900   6.048   0.486   3.484 -0.6851 -1.4619 -0.1955
    3MOL     N1 3901   7.701   1.344   2.757 -0.3735  0.1436  0.0577
    3MOL     N2 3902   7.575   1.518   2.673 -0.1365  0.0154 -0.1592
    3MOL     C1 3903   7.621   1.388   2.645  0.3299 -0.3346  0.1345
    3MOL     C2 3904   7.480   1.591   2.603  0.3282 -0.0699 -0.0284
    3MOL     C3 3905   7.368   1.533   2.548  0.0809  0.5757  0.1406
    3MOL     C4 3906   7.276   1.612   2.480 -0.1601  0.0971  0.3201
    3MOL     C5 3907   7.298   1.749   2.463 -0.7499 -1.2057  0.1376
    3MOL     C6 3908   7.409   1.807   2.522 -0.9055 -1.0992  0.1683
    3MOL     C7 3909   7.504   1.735   2.589  0.2775  0.6314 -1.3870
    3MOL     N3 3910   7.215   1.822   2.384  0.5376  0.3210 -0.1055
    3MOL     C8 3911   7.138   1.935   2.431 -0.1261  0.6828  0.1614
    3MOL     C9 3912   7.071   1.981   2.310  0.1633 -1.3633  0.3829
    3MOL    C10 3913   7.102   1.904   2.198  0.6162 -0.4486  0.6249
    3MOL    C11 3914   7.186   1.791   2.249  0.8251  1.2418  0.1505
    3MOL     O1 3915   7.224   1.691   2.180  0.4550 -0.6539 -0.0764
    3MOL    C12 3916   6.973   2.080   2.302  0.5916 -0.6499  0.3582
    3MOL    C13 3917   6.916   2.105   2.176  0.5631 -0.1182  0.2294
    3MOL    C14 3918   6.957   2.032   2.057 -0.1524  0.5108  0.3656
    3MOL    C15 3919   7.057   1.934   2.066  0.8540 -0.1485 -0.2006
    3MOL    C16 3920   6.682   2.089   2.110 -0.0854  0.4742  0.2401
    3MOL    C17 3921   6.624   2.092   1.978 -0.4765 -0.1703  0.1825
    3MOL    C18 3922   6.558   1.982   1.934 -0.6770  0.7059  0.0834
    3MOL    C19 3923   6.666   1.975   2.192 -0.3618  0.2341 -0.1882
    3MOL    C20 3924   6.547   1.870   2.012 -0.4258  0.4541  0.1035
    3MOL    C21 3925   6.595   1.862   2.141  0.2386  0.4421  0.1344
    3MOL    C22 3926   6.783   2.190   2.164  0.5802  0.1661  0.0498
    3MOL    C23 3927   6.719   2.267   2.290  0.3033 -0.5174 -0.2210
    3MOL     F1 3928   6.809   2.349   2.350 -0.0874 -0.0123  0.0223
    3MOL     F2 3929   6.675   2.179   2.380 -0.2591  0.3245  0.2220
    3MOL     F3 3930   6.602   2.328   2.250 -0.4146  0.0216 -0.2284
    3MOL    C24 3931   6.814   2.316   2.065 -0.1041  0.0700  0.0337
    3MOL     F4 3932   6.702   2.400   2.045  0.1519  0.0546 -0.2096
    3MOL     F5 3933   6.867   2.272   1.948  0.1709  0.2253 -0.1894
    3MOL     F6 3934   6.913   2.387   2.122 -0.0113  0.3374 -0.3215
    3MOL     O2 3935   7.131   1.985   2.541 -0.8817 -0.2588 -0.4891
    3MOL    C25 3936   6.500   1.939   1.802 -0.3003  0.2670  0.2170
    3MOL     N4 3937   6.463   1.807   1.818  0.1618 -0.2483 -0.0661
    3MOL    C26 3938   6.485   1.755   1.940 -0.2647 -0.0291  0.4947
    3MOL     O3 3939   6.471   1.636   1.969 -0.1372 -0.0861  0.0780
    3MOL    C27 3940   7.594   1.301   2.540 -0.8515 -0.2224 -0.5426
    3MOL    C28 3941   7.561   1.351   2.415  0.2879 -0.0140 -0.0491
    3MOL    C29 3942   7.602   1.158   2.546  0.0893 -0.3877 -0.1907
    3MOL    C30 3943   7.506   1.269   2.312 -0.1614 -1.0741 -0.1115
    3MOL    C31 3944   7.576   1.076   2.434  0.1378 -0.8913 -0.2245
    3MOL    C32 3945   7.516   1.132   2.321 -0.2626  0.5003  0.2110
    3MOL    C33 3946   7.452   1.050   2.233  0.0638  0.0355  0.4261
    3MOL     N5 3947   7.308   1.036   2.223  0.5938 -0.1732 -0.6979
    3MOL     N6 3948   7.508   0.925   2.185 -1.1060  0.3091 -0.2638
    3MOL    C34 3949   7.286   0.917   2.151 -0.5573  0.4744 -0.4740
    3MOL    C35 3950   7.402   0.856   2.129 -0.2817  0.8295  0.7369
    3MOL    C36 3951   7.647   0.908   2.135  0.6163 -0.8141 -0.2807
    3MOL     H1 3952   7.682   0.807   2.160 -2.3745 -0.4871 -2.3801
    3MOL     H2 3953   7.710   0.995   2.171 -1.2836  0.4026  1.0723
    3MOL     H3 3954   7.662   0.934   2.028 -2.8797  2.7354 -1.0093
    3MOL    C37 3955   7.215   1.129   2.277 -0.9223  0.2899  0.0934
    3MOL    C38 3956   7.217   1.151   2.418 -0.4250  0.1767 -0.1575
    3MOL    C39 3957   7.126   1.237   2.480  1.2249  0.3040 -0.1206
    3MOL    C40 3958   7.050   1.320   2.395 -0.3505  0.5157  0.0802
    3MOL    C41 3959   7.045   1.298   2.257 -0.2285 -0.4788  0.4449
    3MOL    C42 3960   7.125   1.198   2.199  0.3081 -0.2882 -0.3627
    3MOL    C43 3961   7.414   0.729   2.050 -0.0277  0.7818  0.0375
    3MOL     F7 3962   7.520   0.646   2.075  0.3265 -0.1024 -0.7356
    3MOL     F8 3963   7.418   0.757   1.923 -0.0226  0.5551  0.2731
    3MOL     F9 3964   7.309   0.653   2.065 -0.4406 -0.4150  0.5602
    3MOL    C44 3965   7.631   1.554   2.795 -0.1643 -0.2869 -0.2978
    3MOL    C45 3966   7.699   1.454   2.845  0.4788 -0.4184  0.6953
    3MOL    C46 3967   7.781   1.463   2.973 -0.0781 -0.3327 -0.1618
    3MOL    F10 3968   7.816   1.346   3.035 -0.5000 -0.5039  0.0463
    3MOL    F11 3969   7.891   1.537   2.945  0.1199  0.0556  0.1973
    3MOL     H4 3970   7.622   1.655   2.833 -2.0397 -0.3947  1.6031
    3MOL     H5 3971   7.361   1.427   2.540  0.2193  0.0025 -2.1748
    3MOL     H6 3972   7.195   1.572   2.426 -0.1273  0.5864  0.0246
    3MOL     H7 3973   7.577   1.790   2.656  0.5081  3.4962  2.1022
    3MOL     H8 3974   7.415   1.917   2.519  1.1108  0.7114 -1.6655
    3MOL     H9 3975   6.941   2.122   2.395 -0.5061 -0.7774  0.1193
    3MOL    H10 3976   6.899   2.044   1.967  3.5022  2.2253 -0.6461
    3MOL    H11 3977   7.080   1.879   1.970 -1.8491  2.4403 -0.7884
    3MOL    H12 3978   6.706   1.969   2.292 -2.8109  0.5969 -1.5927
    3MOL    H13 3979   6.642   2.173   1.911  2.4200  0.7484 -0.1972
    3MOL    H14 3980   6.589   1.773   2.201 -2.6408  0.4683  0.3928
    3MOL     O4 3981   6.494   2.004   1.702 -0.1297 -0.2512  0.0891
    3MOL    H15 3982   7.549   1.451   2.397  0.0371 -2.7000 -1.3091
    3MOL    H16 3983   7.463   1.324   2.219 -1.8154  5.4368  0.9860
    3MOL    H17 3984   7.641   1.105   2.638 -1.3914 -0.2057  3.3580
    3MOL    H18 3985   7.121   1.240   2.590  1.3178 -1.2681 -0.6945
    3MOL    H19 3986   7.283   1.089   2.474 -3.1468  0.3932 -1.3460
    3MOL    H20 3987   6.992   1.366   2.192  0.7356  0.8806 -0.6005
    3MOL    H21 3988   7.109   1.176   2.093 -0.1407 -0.6032  0.6222
    3MOL    H22 3989   7.178   0.895   2.124 -1.2558 -0.5056  0.1447
    3MOL    H23 3990   7.575   0.969   2.447  0.4703  1.6286 -1.6921
    3MOL    F12 3991   7.714   1.528   3.071  0.3064 -0.3396  0.2320
    3MOL    C47 3992   7.814   1.245   2.754  0.2426  0.3213 -0.0987
    3MOL    H24 3993   7.777   1.145   2.772  2.5837 -1.2449 -1.9283
    3MOL    H25 3994   7.884   1.261   2.834 -0.5928 -0.0563 -0.4631
    3MOL    H26 3995   7.854   1.254   2.655 -0.5141  1.3820  2.6741
    3MOL     N1 3996   6.471   1.331   2.323 -0.0887 -0.7461  0.2325
    3MOL     N2 3997   6.243   1.340   2.357 -0.4069  0.5108 -0.7278
    3MOL     C1 3998   6.349   1.365   2.260  0.3732  0.9466 -0.6759
    3MOL     C2 3999   6.105   1.350   2.340  0.3183 -0.1227  0.1794
    3MOL     C3 4000   6.051   1.466   2.282  0.3966 -0.0806 -0.8753
    3MOL     C4 4001   5.909   1.475   2.267  0.9317 -0.4911 -0.6503
    3MOL     C5 4002   5.826   1.372   2.317  0.6514  0.1071 -0.2241
    3MOL     C6 4003   5.884   1.255   2.368  0.7142  0.2171 -0.3139
    3MOL     C7 4004   6.021   1.248   2.392  0.1408  0.0933  0.1666
    3MOL     N3 4005   5.689   1.387   2.310  0.3671  0.1282  0.0604
    3MOL     C8 4006   5.613   1.385   2.424 -0.5412 -0.1051  0.9265
    3MOL     C9 4007   5.474   1.411   2.373 -0.7535 -0.7747 -1.0913
    3MOL    C10 4008   5.474   1.412   2.232 -0.7771  0.0154 -0.5152
    3MOL    C11 4009   5.617   1.395   2.189 -0.1325 -0.3153 -0.5937
    3MOL     O1 4010   5.670   1.384   2.078 -0.2593 -0.0206 -0.0482
    3MOL    C12 4011   5.354   1.430   2.442 -0.1709 -0.2365 -0.2332
    3MOL    C13 4012   5.234   1.430   2.372 -0.0690 -0.8125  0.0005
    3MOL    C14 4013   5.232   1.407   2.224  0.2546 -0.6030  0.2706
    3MOL    C15 4014   5.352   1.407   2.155 -0.6378  0.0450  0.0621
    3MOL    C16 4015   4.996   1.369   2.419 -0.6865  0.0109 -0.0955
    3MOL    C17 4016   5.036   1.246   2.478  0.1115 -0.3087 -1.3808
    3MOL    C18 4017   4.931   1.157   2.500 -0.1775  0.6427 -0.0316
    3MOL    C19 4018   4.870   1.388   2.364  0.2657 -0.0578  0.5558
    3MOL    C20 4019   4.806   1.177   2.456  0.3000  0.0393 -0.1744
    3MOL    C21 4020   4.768   1.288   2.376 -0.2487 -0.3181  0.5641
    3MOL    C22 4021   5.103   1.483   2.430  0.4066 -0.4650 -0.4245
    3MOL    C23 4022   5.097   1.509   2.589 -0.5010 -0.4361  0.7068
    3MOL     F1 4023   4.970   1.509   2.641 -0.2746  0.6875 -0.1210
    3MOL     F2 4024   5.158   1.627   2.621 -0.7517 -0.1159  0.4413
    3MOL     F3 4025   5.163   1.421   2.669 -0.0901  0.4414 -0.0804
    3MOL    C24 4026   5.070   1.622   2.365 -0.0777 -0.0217  0.3837
    3MOL     F4 4027   5.177   1.708   2.382  0.0522 -0.1397 -0.4886
    3MOL     F5 4028   4.957   1.682   2.418 -0.0020  0.6969 -0.2292
    3MOL     F6 4029   5.046   1.621   2.231  0.3165 -0.1651  0.0793
    3MOL     O2 4030   5.640   1.351   2.541 -0.2855 -0.2668 -0.4563
    3MOL    C25 4031   4.932   1.027   2.571  0.0579  0.5949 -0.2141
    3MOL     N4 4032   4.806   0.976   2.564  0.2280  0.4114  0.2012
    3MOL    C26 4033   4.727   1.056   2.489  0.2396  0.6136 -0.8052
    3MOL     O3 4034   4.620   1.015   2.442 -0.5681  0.2162 -0.1839
    3MOL    C27 4035   6.330   1.385   2.125 -0.3875 -0.1520 -0.4642
    3MOL    C28 4036   6.268   1.503   2.079 -0.8276 -0.0926 -0.2159
    3MOL    C29 4037   6.346   1.276   2.036 -0.2363 -0.4561 -0.1910
    3MOL    C30 4038   6.199   1.505   1.960 -0.5213 -0.0364 -0.0999
    3MOL    C31 4039   6.276   1.279   1.911  0.9121 -0.0075 -0.4817
    3MOL    C32 4040   6.185   1.388   1.879  0.2384  0.5215 -0.1864
    3MOL    C33 4041   6.090   1.389   1.772  0.6203  0.5561 -0.1343
    3MOL     N5 4042   6.113   1.446   1.645  0.1871  0.2860  0.0612
    3MOL     N6 4043   5.959   1.336   1.767 -0.1364  0.2190  0.4664
    3MOL    C34 4044   5.998   1.422   1.572  0.1153  0.4296 -0.8193
    3MOL    C35 4045   5.909   1.357   1.639  0.0047 -0.4007  0.8806
    3MOL    C36 4046   5.873   1.287   1.874 -0.0539  0.3431 -0.7454
    3MOL     H1 4047   5.777   1.340   1.905  0.6553 -3.9630 -0.9985
    3MOL     H2 4048   5.931   1.271   1.967 -2.2496  0.0805  0.1891
    3MOL     H3 4049   5.854   1.178   1.847  0.0910  0.3898 -2.6599
    3MOL    C37 4050   6.196   1.551   1.621  0.1354  0.5893 -0.2482
    3MOL    C38 4051   6.148   1.680   1.668 -0.5231 -0.6629  0.9429
    3MOL    C39 4052   6.240   1.772   1.719 -0.0631 -0.0382 -0.4340
    3MOL    C40 4053   6.377   1.740   1.726  0.4941 -0.3530  0.1385
    3MOL    C41 4054   6.427   1.625   1.654 -0.2539  0.0963  0.0623
    3MOL    C42 4055   6.335   1.534   1.600 -0.4106 -0.0493 -0.6904
    3MOL    C43 4056   5.765   1.333   1.593 -0.6990 -0.0143  0.2140
    3MOL     F7 4057   5.687   1.437   1.633 -0.5255 -0.0675  0.1041
    3MOL     F8 4058   5.710   1.222   1.653  0.2599  0.0210 -0.0432
    3MOL     F9 4059   5.751   1.319   1.462  0.2697  0.5281  0.4187
    3MOL    C44 4060   6.310   1.276   2.464 -0.2117 -0.4083 -0.3119
    3MOL    C45 4061   6.437   1.265   2.446 -0.7655 -0.3457  0.5404
    3MOL    C46 4062   6.538   1.191   2.532 -0.1032  0.3447  0.3195
    3MOL    F10 4063   6.465   1.106   2.608 -0.0195  0.4053  0.0490
    3MOL    F11 4064   6.624   1.122   2.456  0.2198  0.3274  0.0229
    3MOL     H4 4065   6.242   1.240   2.542 -2.1281  1.3803  2.5904
    3MOL     H5 4066   6.110   1.547   2.247 -0.8188  2.0368 -0.2723
    3MOL     H6 4067   5.862   1.561   2.233  1.1819 -0.5089 -0.4596
    3MOL     H7 4068   6.071   1.165   2.438  0.9298 -0.1266  1.0594
    3MOL     H8 4069   5.819   1.174   2.409  1.8129 -0.5969  3.4604
    3MOL     H9 4070   5.345   1.444   2.547 -1.3910 -0.6705 -1.3739
    3MOL    H10 4071   5.134   1.409   2.174  1.4387 -0.4336  1.2460
    3MOL    H11 4072   5.355   1.416   2.041 -1.3732 -0.7675 -3.6550
    3MOL    H12 4073   4.853   1.483   2.312 -0.0925  0.4237  0.9843
    3MOL    H13 4074   5.137   1.237   2.520  2.3262 -2.8296 -0.5415
    3MOL    H14 4075   4.664   1.304   2.338 -1.9363  1.2155 -0.2578
    3MOL     O4 4076   5.028   0.976   2.628  0.2951 -0.1057 -0.3504
    3MOL    H15 4077   6.254   1.589   2.143  2.6005 -1.9102  2.3771
    3MOL    H16 4078   6.126   1.593   1.939 -1.1628  0.2672 -1.1289
    3MOL    H17 4079   6.394   1.180   2.067 -0.3450  0.8892 -1.1506
    3MOL    H18 4080   6.206   1.864   1.768  1.7510  0.1323  3.0138
    3MOL    H19 4081   6.049   1.692   1.690  3.1104  0.5937 -3.3219
    3MOL    H20 4082   6.531   1.601   1.646 -0.0778 -2.5973 -0.4788
    3MOL    H21 4083   6.380   1.441   1.564 -0.7679  3.2738 -0.6534
    3MOL    H22 4084   5.981   1.462   1.475  0.1858 -2.7573 -0.5953
    3MOL    H23 4085   6.272   1.187   1.862  2.9200  4.2946 -0.4711
    3MOL    F12 4086   6.605   1.275   2.606  0.3128 -0.4487  1.1159
    3MOL    C47 4087   6.570   1.438   2.320 -0.5812 -0.2630 -0.5061
    3MOL    H24 4088   6.641   1.402   2.406  1.5311  0.8675 -0.2834
    3MOL    H25 4089   6.509   1.527   2.361  1.3399 -0.1488  1.0844
    3MOL    H26 4090   6.633   1.454   2.229  2.2034 -0.9786 -0.6395
    3MOL     N1 4091   4.341   1.045   2.303 -0.5891 -0.1067  0.0374
    3MOL     N2 4092   4.512   1.023   2.150  0.1410  0.6968  0.2722
    3MOL     C1 4093   4.422   0.952   2.229  0.0361  0.2598  0.3697
    3MOL     C2 4094   4.617   0.974   2.069  0.2923  0.3352  0.6576
    3MOL     C3 4095   4.748   0.981   2.116 -0.4675 -0.1355  0.1258
    3MOL     C4 4096   4.852   0.925   2.036  0.7247  0.2044 -0.5096
    3MOL     C5 4097   4.826   0.889   1.899  0.3091  0.6241 -0.6243
    3MOL     C6 4098   4.696   0.899   1.849  0.6319  0.5338 -0.1945
    3MOL     C7 4099   4.591   0.936   1.936  0.2149  0.1830  0.0267
    3MOL     N3 4100   4.929   0.819   1.834  0.0077  0.4329 -0.1648
    3MOL     C8 4101   4.938   0.679   1.845  0.2160  0.5139 -0.2195
    3MOL     C9 4102   5.057   0.642   1.764  0.4611 -0.3752  0.6707
    3MOL    C10 4103   5.117   0.762   1.723  0.2249 -0.1176  0.4695
    3MOL    C11 4104   5.037   0.879   1.775 -0.2590 -0.5564 -0.1435
    3MOL     O1 4105   5.050   0.998   1.757 -0.2557 -0.4335 -0.0612
    3MOL    C12 4106   5.109   0.516   1.730 -0.0308  0.1279 -0.1297
    3MOL    C13 4107   5.228   0.511   1.659  0.3358  0.3392 -0.1950
    3MOL    C14 4108   5.295   0.633   1.622 -0.6796  1.0056  1.1301
    3MOL    C15 4109   5.235   0.763   1.646  0.2060  0.4780  0.3731
    3MOL    C16 4110   5.427   0.375   1.710 -0.0879  0.4690 -0.4202
    3MOL    C17 4111   5.533   0.291   1.678 -1.0638 -0.1543 -0.8876
    3MOL    C18 4112   5.637   0.286   1.770  0.8121 -0.0264  0.8771
    3MOL    C19 4113   5.428   0.453   1.832 -0.1255  0.0530  0.6172
    3MOL    C20 4114   5.636   0.363   1.886 -0.2730 -0.0683 -0.1903
    3MOL    C21 4115   5.534   0.446   1.918 -0.2163 -0.6818 -0.5864
    3MOL    C22 4116   5.295   0.376   1.633  0.8820 -0.2021  0.9111
    3MOL    C23 4117   5.217   0.247   1.682 -0.3472 -0.6301 -0.1324
    3MOL     F1 4118   5.218   0.233   1.816  0.4370 -0.0214  0.5142
    3MOL     F2 4119   5.271   0.137   1.637 -0.4165 -0.5210  0.5183
    3MOL     F3 4120   5.095   0.250   1.628 -0.1084  0.4157  0.0982
    3MOL    C24 4121   5.319   0.358   1.474  0.2735 -0.1447 -0.3353
    3MOL     F4 4122   5.198   0.345   1.415  0.0028 -0.6797  0.4662
    3MOL     F5 4123   5.391   0.252   1.429 -0.0378 -0.0210  0.2450
    3MOL     F6 4124   5.386   0.469   1.422  0.2870 -0.0288 -0.2214
    3MOL     O2 4125   4.859   0.608   1.907  0.1848 -0.0782  0.1133
    3MOL    C25 4126   5.754   0.198   1.784  0.2498  0.2252 -0.5411
    3MOL     N4 4127   5.795   0.200   1.915 -0.1597  0.4750  0.6375
    3MOL    C26 4128   5.729   0.301   1.982 -0.2494  0.0824 -0.2804
    3MOL     O3 4129   5.756   0.331   2.098 -0.0681  0.6102  0.6765
    3MOL    C27 4130   4.441   0.815   2.270  0.5594 -0.6206 -0.3831
    3MOL    C28 4131   4.572   0.778   2.281  0.3555 -0.0655 -0.0274
    3MOL    C29 4132   4.336   0.725   2.270 -0.4671  0.1942  0.1065
    3MOL    C30 4133   4.603   0.650   2.318 -0.1422  0.1264 -0.1024
    3MOL    C31 4134   4.365   0.599   2.326 -0.3591  0.0424  0.4264
    3MOL    C32 4135   4.496   0.561   2.356  0.7614  0.2371  0.1774
    3MOL    C33 4136   4.530   0.455   2.432  0.1511 -0.2678 -0.5536
    3MOL     N5 4137   4.605   0.457   2.552 -0.4019  0.5951  0.1885
    3MOL     N6 4138   4.488   0.321   2.422  0.4587  0.0949  0.2233
    3MOL    C34 4139   4.619   0.324   2.598  0.2619  0.5812  0.6447
    3MOL    C35 4140   4.539   0.243   2.528 -0.7790  0.0756  0.3964
    3MOL    C36 4141   4.480   0.265   2.288  0.6529 -0.7507 -0.3480
    3MOL     H1 4142   4.420   0.170   2.286  1.7417 -1.7217 -1.3763
    3MOL     H2 4143   4.586   0.247   2.251  2.3780  0.8171  1.8983
    3MOL     H3 4144   4.436   0.336   2.214 -0.1634  1.2613  0.5167
    3MOL    C37 4145   4.662   0.572   2.604  0.3222  0.1201 -0.3117
    3MOL    C38 4146   4.582   0.681   2.642  0.0329 -0.1844  0.7103
    3MOL    C39 4147   4.640   0.809   2.652  0.5050 -0.6968 -0.1522
    3MOL    C40 4148   4.768   0.838   2.600  0.3438  0.0441 -1.1266
    3MOL    C41 4149   4.846   0.729   2.567 -0.1143  0.2537  0.1560
    3MOL    C42 4150   4.792   0.594   2.574  0.2116 -0.1851  0.6441
    3MOL    C43 4151   4.504   0.100   2.549  0.1844  0.0426  0.9940
    3MOL     F7 4152   4.406   0.049   2.462  0.3504 -0.1604  0.0574
    3MOL     F8 4153   4.473   0.078   2.674  0.5460 -0.2353 -0.0887
    3MOL     F9 4154   4.614   0.025   2.528 -0.0100  0.1522  0.3300
    3MOL    C44 4155   4.483   1.160   2.177 -0.5355  0.1373 -0.1793
    3MOL    C45 4156   4.387   1.176   2.269 -0.3331  0.1786 -0.5338
    3MOL    C46 4157   4.321   1.303   2.326  0.3474 -0.4506  0.4090
    3MOL    F10 4158   4.309   1.401   2.236  0.4450  0.4407  0.1348
    3MOL    F11 4159   4.206   1.287   2.397 -0.4143  0.4100  0.3055
    3MOL     H4 4160   4.531   1.235   2.124  2.2187  0.4527  0.4541
    3MOL     H5 4161   4.772   1.011   2.220  1.1157  1.3529  2.1471
    3MOL     H6 4162   4.954   0.901   2.072  3.1966 -2.1345 -0.8941
    3MOL     H7 4163   4.491   0.941   1.900  1.2141 -0.4574  0.6560
    3MOL     H8 4164   4.689   0.863   1.751  0.3145  0.5852  0.6229
    3MOL     H9 4165   5.060   0.430   1.754  1.6618 -0.2557 -0.3062
    3MOL    H10 4166   5.398   0.635   1.580  1.6919  0.5905 -2.3263
    3MOL    H11 4167   5.277   0.855   1.619 -0.4433 -1.0646 -0.3273
    3MOL    H12 4168   5.351   0.517   1.861  1.5735  3.0564  0.5046
    3MOL    H13 4169   5.527   0.222   1.593 -2.3476 -1.3159 -1.6687
    3MOL    H14 4170   5.531   0.498   2.011  0.3387 -3.0424 -0.9750
    3MOL     O4 4171   5.805   0.140   1.690 -0.1652  0.7312 -0.6613
    3MOL    H15 4172   4.647   0.854   2.291  1.8186  1.9976  0.8005
    3MOL    H16 4173   4.710   0.631   2.321  0.7345  2.0442 -0.4724
    3MOL    H17 4174   4.240   0.759   2.226  0.9504  0.8785  0.7172
    3MOL    H18 4175   4.568   0.891   2.687  0.0231  0.3859  3.1715
    3MOL    H19 4176   4.478   0.663   2.663 -0.7498  1.1735  0.7303
    3MOL    H20 4177   4.949   0.737   2.529 -2.8376 -1.9499  1.7685
    3MOL    H21 4178   4.861   0.513   2.546  1.2275  0.7031  1.6986
    3MOL    H22 4179   4.682   0.304   2.683  1.2202 -2.1475 -0.1586
    3MOL    H23 4180   4.288   0.531   2.357  0.0142  1.3448 -0.4647
    3MOL    F12 4181   4.401   1.362   2.414 -0.0020  0.2219 -0.0390
    3MOL    C47 4182   4.309   1.020   2.447 -0.2893 -0.6272  0.5255
    3MOL    H24 4183   4.210   1.064   2.463  0.9389 -4.0908 -0.2192
    3MOL    H25 4184   4.387   1.061   2.514  2.0725 -1.4850  0.0413
    3MOL    H26 4185   4.308   0.908   2.451  0.6730  0.7872 -3.8115
    3MOL     N1 4186   5.801   0.548   2.378  0.1943  0.0750 -0.1814
    3MOL     N2 4187   5.610   0.467   2.471 -0.2141 -0.2160  0.0654
    3MOL     C1 4188   5.736   0.426   2.409  0.1808 -0.0327 -0.1582
    3MOL     C2 4189   5.510   0.376   2.473  0.4381 -0.0164  0.6529
    3MOL     C3 4190   5.443   0.337   2.349 -0.4135  0.0474 -0.4971
    3MOL     C4 4191   5.354   0.231   2.339  0.5282  0.2210 -0.4648
    3MOL     C5 4192   5.321   0.160   2.453 -0.5507  0.1631 -0.2995
    3MOL     C6 4193   5.377   0.203   2.578  0.2739  0.0463  0.2249
    3MOL     C7 4194   5.467   0.314   2.590  0.3906 -1.1751  0.2415
    3MOL     N3 4195   5.249   0.043   2.443  0.7890  0.8500  0.4041
    3MOL     C8 4196   5.124   0.017   2.502  0.2282  0.0953 -0.3820
    3MOL     C9 4197   5.081  -0.113   2.448  0.1889 -0.7669 -0.5431
    3MOL    C10 4198   5.184  -0.166   2.365  0.0172 -0.9788 -0.0615
    3MOL    C11 4199   5.296  -0.063   2.375  0.3180  0.2516  0.2936
    3MOL     O1 4200   5.406  -0.059   2.318 -0.0957 -0.7432 -0.1455
    3MOL    C12 4201   4.962  -0.182   2.481 -0.2620 -0.0374  0.2895
    3MOL    C13 4202   4.950  -0.315   2.424 -0.7789 -0.6246 -0.3518
    3MOL    C14 4203   5.044  -0.356   2.326 -0.5102  0.5551  0.2122
    3MOL    C15 4204   5.164  -0.285   2.299 -0.5761  0.6613  0.3854
    3MOL    C16 4205   4.886  -0.557   2.436  0.0757 -0.0029 -0.1479
    3MOL    C17 4206   5.001  -0.598   2.503  0.8621  0.2928 -0.0494
    3MOL    C18 4207   5.072  -0.713   2.465  0.1116  0.9731  0.0836
    3MOL    C19 4208   4.817  -0.657   2.360  0.1740 -0.1990 -0.1919
    3MOL    C20 4209   5.009  -0.808   2.387  0.1915 -0.4261  0.0515
    3MOL    C21 4210   4.880  -0.783   2.333  0.0572  0.8019 -0.9509
    3MOL    C22 4211   4.832  -0.410   2.454 -0.0153 -0.4404  0.1331
    3MOL    C23 4212   4.786  -0.404   2.605  0.3960  1.2800 -0.6970
    3MOL     F1 4213   4.713  -0.520   2.628  0.0018  0.1039 -0.0459
    3MOL     F2 4214   4.705  -0.300   2.631 -0.1831 -0.4294  0.1524
    3MOL     F3 4215   4.894  -0.398   2.689  0.4922  0.3976 -0.2123
    3MOL    C24 4216   4.710  -0.383   2.363  0.2832  0.1108 -0.3134
    3MOL     F4 4217   4.690  -0.251   2.361 -0.0798 -0.2403  0.4700
    3MOL     F5 4218   4.596  -0.448   2.389  0.5405 -0.1914  0.4826
    3MOL     F6 4219   4.743  -0.416   2.236 -0.3386  0.2136  0.1805
    3MOL     O2 4220   5.069   0.088   2.585 -0.8910  0.0377  0.5215
    3MOL    C25 4221   5.209  -0.758   2.498 -0.5100  0.4572  0.3162
    3MOL     N4 4222   5.228  -0.876   2.427 -0.3922 -0.0422  0.2821
    3MOL    C26 4223   5.109  -0.916   2.358 -0.6883 -0.1042  0.7158
    3MOL     O3 4224   5.099  -1.011   2.278  0.3861 -0.2902  0.1287
    3MOL    C27 4225   5.782   0.293   2.415 -0.0695  0.3636  0.5730
    3MOL    C28 4226   5.721   0.197   2.334  0.3152 -0.5844  0.3241
    3MOL    C29 4227   5.889   0.254   2.501  0.6759  0.3297  0.0140
    3MOL    C30 4228   5.758   0.062   2.336 -0.2529 -0.6328  0.1740
    3MOL    C31 4229   5.923   0.116   2.508 -0.5995 -0.6378 -0.0411
    3MOL    C32 4230   5.861   0.019   2.422 -0.0954  0.0699 -0.1719
    3MOL    C33 4231   5.912  -0.109   2.409 -0.4461 -0.0833  0.5818
    3MOL     N5 4232   5.975  -0.152   2.289 -0.5131  0.4733  0.4601
    3MOL     N6 4233   5.917  -0.221   2.496  0.1112  0.2975  0.6456
    3MOL    C34 4234   6.036  -0.274   2.323  0.0604 -0.0281  0.5952
    3MOL    C35 4235   6.008  -0.314   2.442  0.6554  0.1339 -0.2070
    3MOL    C36 4236   5.895  -0.198   2.641 -0.0799  0.7939  0.1888
    3MOL     H1 4237   5.982  -0.145   2.686 -0.8584 -0.8012  1.6509
    3MOL     H2 4238   5.867  -0.295   2.685 -0.0880 -2.1175  0.2782
    3MOL     H3 4239   5.804  -0.135   2.648  0.6152 -0.8489 -3.4659
    3MOL    C37 4240   5.966  -0.088   2.163  0.2895 -0.7711  0.3043
    3MOL    C38 4241   5.866  -0.118   2.068  0.0473 -0.2400 -0.8388
    3MOL    C39 4242   5.825  -0.036   1.964  0.1964 -0.2011  0.0873
    3MOL    C40 4243   5.874   0.095   1.970 -0.8180 -0.2658 -0.0237
    3MOL    C41 4244   5.975   0.130   2.066 -0.2873  0.7559  0.3252
    3MOL    C42 4245   6.021   0.044   2.158 -0.0386  0.4095  0.0083
    3MOL    C43 4246   6.066  -0.436   2.513  0.7867  0.4473  0.4227
    3MOL     F7 4247   6.005  -0.547   2.465  0.4582  0.2166 -0.0206
    3MOL     F8 4248   6.051  -0.441   2.645 -0.2933 -0.3219  0.4799
    3MOL     F9 4249   6.199  -0.448   2.497  0.3869  0.3668  0.4965
    3MOL    C44 4250   5.602   0.605   2.454 -0.8776  0.0233  0.5018
    3MOL    C45 4251   5.704   0.654   2.389 -0.3729 -0.4820 -0.1180
    3MOL    C46 4252   5.714   0.796   2.345 -0.3723 -0.5513 -0.5509
    3MOL    F10 4253   5.610   0.869   2.403  0.2312  0.0112  0.3498
    3MOL    F11 4254   5.826   0.861   2.384 -0.1129 -0.1570  0.1439
    3MOL     H4 4255   5.519   0.659   2.474  0.7868  0.4882 -0.1217
    3MOL     H5 4256   5.474   0.388   2.259 -1.1535 -0.5127 -1.1876
    3MOL     H6 4257   5.313   0.209   2.238 -0.5014  2.6839  2.9277
    3MOL     H7 4258   5.521   0.331   2.683  0.7527  0.9833 -0.3841
    3MOL     H8 4259   5.338   0.153   2.666 -0.1244 -0.8063 -1.7940
    3MOL     H9 4260   4.899  -0.144   2.553 -0.5677  2.4333 -1.1771
    3MOL    H10 4261   5.035  -0.458   2.279 -0.2625 -4.2841  0.9624
    3MOL    H11 4262   5.230  -0.335   2.226  1.4163 -2.4501  0.0080
    3MOL    H12 4263   4.724  -0.640   2.311  0.4140 -0.7889 -0.7610
    3MOL    H13 4264   5.056  -0.532   2.562 -1.0216  1.7553 -0.9043
    3MOL    H14 4265   4.835  -0.857   2.261 -1.6297 -2.0253 -2.4147
    3MOL     O4 4266   5.286  -0.699   2.569 -0.5352 -0.0409 -0.0804
    3MOL    H15 4267   5.654   0.242   2.262 -0.8202 -1.8167 -2.5023
    3MOL    H16 4268   5.708  -0.006   2.268 -0.3699 -0.6703  0.7043
    3MOL    H17 4269   5.940   0.314   2.570 -1.3163 -1.2811 -0.8934
    3MOL    H18 4270   5.749  -0.069   1.890 -0.4186  2.0334 -0.3526
    3MOL    H19 4271   5.800  -0.208   2.077  1.9661 -0.1680  2.1757
    3MOL    H20 4272   6.003   0.235   2.059  0.2548 -0.9693  3.7075
    3MOL    H21 4273   6.073   0.081   2.248  0.5933 -1.5857 -0.1842
    3MOL    H22 4274   6.103  -0.325   2.259 -0.2123 -1.3979  2.9341
    3MOL    H23 4275   6.000   0.080   2.578 -0.4361 -2.9933 -0.5200
    3MOL    F12 4276   5.707   0.801   2.206 -0.1559  0.0509  0.2336
    3MOL    C47 4277   5.903   0.540   2.270  0.2702 -0.6521 -0.6613
    3MOL    H24 4278   5.937   0.638   2.241 -0.2256  0.3773  0.9695
    3MOL    H25 4279   5.873   0.491   2.180 -0.6977 -1.3063  0.6818
    3MOL    H26 4280   5.991   0.492   2.314 -2.7215 -1.8030  2.0298
    3MOL     N1 4281   6.145  -0.469   2.059  0.2975 -0.0001 -0.7378
    3MOL     N2 4282   6.275  -0.584   2.212  0.5462  0.2646 -0.5476
    3MOL     C1 4283   6.146  -0.577   2.141  0.0063  0.0338 -0.2759
    3MOL     C2 4284   6.332  -0.695   2.264 -0.3873  0.1340 -0.4869
    3MOL     C3 4285   6.336  -0.809   2.183 -0.4392  0.4511  0.3786
    3MOL     C4 4286   6.363  -0.935   2.233  0.1828  0.1990  0.6049
    3MOL     C5 4287   6.407  -0.944   2.365  0.1679  0.0455 -0.8979
    3MOL     C6 4288   6.397  -0.832   2.452 -0.3076  0.3869 -0.0936
    3MOL     C7 4289   6.371  -0.704   2.398  0.0043  0.5987 -0.5141
    3MOL     N3 4290   6.430  -1.068   2.415  0.1182  0.1048 -0.4712
    3MOL     C8 4291   6.543  -1.086   2.487  0.3011  0.7075 -0.3341
    3MOL     C9 4292   6.515  -1.217   2.554 -0.2814 -0.0031 -0.1210
    3MOL    C10 4293   6.394  -1.268   2.514  0.2718  0.6369  0.6764
    3MOL    C11 4294   6.335  -1.168   2.423 -0.2568 -0.0620 -0.2598
    3MOL     O1 4295   6.225  -1.162   2.372 -0.0765  0.2016 -0.1365
    3MOL    C12 4296   6.599  -1.296   2.635  0.3915 -0.2414 -0.0086
    3MOL    C13 4297   6.556  -1.425   2.672 -0.2211 -0.1480  0.1579
    3MOL    C14 4298   6.427  -1.476   2.629  0.0436  0.4204  0.0218
    3MOL    C15 4299   6.346  -1.394   2.555  0.0063 -0.5305 -0.7402
    3MOL    C16 4300   6.792  -1.502   2.700  0.3381 -0.7856  0.1290
    3MOL    C17 4301   6.791  -1.515   2.562 -0.3748 -0.4811  0.0772
    3MOL    C18 4302   6.906  -1.507   2.489 -0.4693 -0.3689  0.5151
    3MOL    C19 4303   6.915  -1.472   2.766  0.1350  0.0056 -0.7248
    3MOL    C20 4304   7.028  -1.487   2.554 -0.4925  0.0493  0.0161
    3MOL    C21 4305   7.033  -1.472   2.691 -0.5742 -0.1977 -0.4786
    3MOL    C22 4306   6.653  -1.500   2.761 -0.7079 -0.2169 -0.6161
    3MOL    C23 4307   6.651  -1.438   2.904  0.2699 -0.4981  0.7237
    3MOL     F1 4308   6.518  -1.415   2.939  0.2537  0.3907 -0.1865
    3MOL     F2 4309   6.697  -1.314   2.914 -0.1311  0.2909  0.1528
    3MOL     F3 4310   6.705  -1.514   2.994 -0.1574 -0.6369  0.1640
    3MOL    C24 4311   6.611  -1.650   2.779 -0.0822  0.3207  0.3565
    3MOL     F4 4312   6.722  -1.713   2.835  0.1580  0.2078  0.5095
    3MOL     F5 4313   6.594  -1.702   2.662 -0.1061 -0.4206 -0.1787
    3MOL     F6 4314   6.500  -1.678   2.855 -0.1046  0.1006  0.5683
    3MOL     O2 4315   6.648  -1.023   2.490 -0.2609  0.5022 -0.0868
    3MOL    C25 4316   6.931  -1.526   2.342 -0.2872 -0.9250  0.1037
    3MOL     N4 4317   7.066  -1.526   2.325 -0.3437 -0.4867 -0.2672
    3MOL    C26 4318   7.128  -1.493   2.447 -0.1257 -0.4290  0.4605
    3MOL     O3 4319   7.248  -1.481   2.463  0.3710 -0.5404 -0.3463
    3MOL    C27 4320   6.051  -0.682   2.146  0.2435 -0.4316  0.1847
    3MOL    C28 4321   6.035  -0.745   2.272  0.0720 -0.0488  0.2616
    3MOL    C29 4322   5.995  -0.740   2.034 -0.5374  0.6030  0.0565
    3MOL    C30 4323   5.964  -0.862   2.285  0.1301  0.4090 -0.3056
    3MOL    C31 4324   5.911  -0.851   2.051 -0.5158  0.4116  0.5645
    3MOL    C32 4325   5.897  -0.917   2.176  0.3253 -0.5162  0.3914
    3MOL    C33 4326   5.834  -1.042   2.176 -0.0171 -0.5979 -0.1086
    3MOL     N5 4327   5.716  -1.080   2.248  0.2513 -0.2629 -0.1605
    3MOL     N6 4328   5.899  -1.155   2.130  0.5384 -0.2667  0.2982
    3MOL    C34 4329   5.717  -1.217   2.222  0.0269  0.5079 -0.8395
    3MOL    C35 4330   5.823  -1.262   2.159 -0.1858  0.0149 -0.8441
    3MOL    C36 4331   6.046  -1.163   2.132  0.2305 -0.5114 -0.5928
    3MOL     H1 4332   6.079  -1.214   2.227 -0.3617  0.1145  1.4616
    3MOL     H2 4333   6.087  -1.063   2.116  1.6750  2.9220  1.3093
    3MOL     H3 4334   6.068  -1.233   2.052 -2.6588 -0.8196  1.3411
    3MOL    C37 4335   5.611  -1.015   2.309 -0.1195  0.5648 -0.6133
    3MOL    C38 4336   5.558  -0.906   2.241 -0.0210 -0.0707 -0.5267
    3MOL    C39 4337   5.429  -0.856   2.289 -0.4357 -0.2619 -0.2072
    3MOL    C40 4338   5.358  -0.920   2.393  0.3054  0.1326  0.6143
    3MOL    C41 4339   5.426  -1.015   2.469  0.0447  0.4755 -1.3019
    3MOL    C42 4340   5.557  -1.059   2.433  0.0662 -0.5069  0.3544
    3MOL    C43 4341   5.865  -1.405   2.161  0.2025 -1.3654  0.3416
    3MOL     F7 4342   5.968  -1.425   2.246  0.0168 -0.2641 -0.6890
    3MOL     F8 4343   5.906  -1.446   2.040 -0.2614 -0.3273 -0.0396
    3MOL     F9 4344   5.760  -1.479   2.195  0.0194 -0.1533 -0.0352
    3MOL    C44 4345   6.341  -0.459   2.178  0.3038  0.0623  0.7078
    3MOL    C45 4346   6.265  -0.402   2.084 -0.3794 -0.8680 -0.6276
    3MOL    C46 4347   6.310  -0.263   2.028 -0.0085 -0.4063 -0.0885
    3MOL    F10 4348   6.274  -0.242   1.905  0.2512 -0.0448 -0.5009
    3MOL    F11 4349   6.249  -0.168   2.100  0.4374  0.1278  0.0791
    3MOL     H4 4350   6.431  -0.447   2.223 -1.3403 -1.4140  0.6193
    3MOL     H5 4351   6.293  -0.801   2.086 -0.3093  1.0091  0.9032
    3MOL     H6 4352   6.359  -1.026   2.171  0.2501  3.5738  0.3965
    3MOL     H7 4353   6.364  -0.615   2.462 -2.7296 -1.5432  0.3095
    3MOL     H8 4354   6.416  -0.843   2.561 -1.4325 -1.3434  1.0116
    3MOL     H9 4355   6.699  -1.256   2.668  0.9424  0.9865  1.5188
    3MOL    H10 4356   6.384  -1.571   2.658 -1.8707  0.8354 -1.0640
    3MOL    H11 4357   6.250  -1.433   2.519  2.6911  1.3685 -1.2460
    3MOL    H12 4358   6.915  -1.449   2.867  1.1179 -2.6130 -2.2053
    3MOL    H13 4359   6.703  -1.541   2.505  3.4166  1.8561 -1.1480
    3MOL    H14 4360   7.124  -1.451   2.745  0.1362  1.6842  0.2440
    3MOL     O4 4361   6.853  -1.531   2.251  0.2255  0.5424 -0.0785
    3MOL    H15 4362   6.079  -0.706   2.356 -0.2150 -1.6669 -1.2123
    3MOL    H16 4363   5.959  -0.903   2.386 -1.0649  1.0528  0.8457
    3MOL    H17 4364   6.025  -0.705   1.934  0.5456 -1.4001  1.0865
    3MOL    H18 4365   5.391  -0.777   2.235  2.0504 -2.5805  0.5131
    3MOL    H19 4366   5.607  -0.864   2.151 -0.5909  0.5746  1.4019
    3MOL    H20 4367   5.379  -1.052   2.564 -2.1016 -1.3371 -0.0597
    3MOL    H21 4368   5.617  -1.123   2.492  0.5241  1.0623 -1.3183
    3MOL    H22 4369   5.642  -1.266   2.273 -1.9663  1.9879  0.4320
    3MOL    H23 4370   5.879  -0.894   1.957  0.8027 -0.8630  1.4623
    3MOL    F12 4371   6.444  -0.249   2.033 -0.0292  0.2107  0.1451
    3MOL    C47 4372   6.025  -0.392   2.015  0.5995 -0.1264 -0.1492
    3MOL    H24 4373   6.059  -0.339   1.926  0.1047  1.0743  1.0944
    3MOL    H25 4374   6.006  -0.310   2.088 -0.9107 -1.8716 -0.8405
    3MOL    H26 4375   5.940  -0.458   2.003 -1.5499  1.3646  1.5536
    3MOL     N1 4376   7.478  -2.399   2.128 -0.6163 -0.5844  0.3095
    3MOL     N2 4377   7.256  -2.451   2.137  0.7130 -0.5311 -0.1842
    3MOL     C1 4378   7.349  -2.362   2.082  1.5280  0.1167 -0.3760
    3MOL     C2 4379   7.115  -2.440   2.114 -0.5652  0.2009  0.0112
    3MOL     C3 4380   7.055  -2.366   2.003  0.5852 -0.1093  0.1596
    3MOL     C4 4381   6.914  -2.374   1.984  0.9681  0.0152 -0.6963
    3MOL     C5 4382   6.841  -2.465   2.073  0.6853 -0.2918  1.1222
    3MOL     C6 4383   6.896  -2.517   2.190  0.1478 -0.2869  0.6248
    3MOL     C7 4384   7.035  -2.509   2.208  0.0649  0.1932 -0.1265
    3MOL     N3 4385   6.710  -2.478   2.040  0.4332  0.1667 -0.4487
    3MOL     C8 4386   6.605  -2.455   2.129  0.1603  0.4178 -0.3968
    3MOL     C9 4387   6.486  -2.431   2.044  0.9530  0.3250 -0.0312
    3MOL    C10 4388   6.526  -2.444   1.914 -0.4133 -0.8213  0.9309
    3MOL    C11 4389   6.664  -2.492   1.911  0.0384 -0.1323 -0.6832
    3MOL     O1 4390   6.732  -2.532   1.822  0.2802  0.4232  0.4380
    3MOL    C12 4391   6.350  -2.405   2.070  0.4199 -0.5651 -0.0566
    3MOL    C13 4392   6.260  -2.375   1.966  0.0617  0.0609 -0.2189
    3MOL    C14 4393   6.305  -2.380   1.828  0.7443  0.6816 -1.1523
    3MOL    C15 4394   6.441  -2.416   1.807  0.0962 -0.0814  1.0073
    3MOL    C16 4395   6.114  -2.189   1.919  0.2136  0.0376 -0.4305
    3MOL    C17 4396   6.211  -2.091   1.949 -0.6979  0.6073 -0.5899
    3MOL    C18 4397   6.218  -1.974   1.882 -0.4229 -0.1621  0.2664
    3MOL    C19 4398   6.034  -2.159   1.805 -0.8160  0.6039 -0.2912
    3MOL    C20 4399   6.128  -1.947   1.785  0.3583  0.2904  0.9522
    3MOL    C21 4400   6.042  -2.038   1.734  0.2813  0.1012 -0.9857
    3MOL    C22 4401   6.118  -2.325   1.987 -1.0366  0.1788 -0.0640
    3MOL    C23 4402   6.012  -2.427   1.935  1.2373 -0.3222  0.1462
    3MOL     F1 4403   6.037  -2.551   1.993 -0.4879  0.2542  0.1648
    3MOL     F2 4404   6.006  -2.447   1.805  0.3226 -0.1073  0.1276
    3MOL     F3 4405   5.890  -2.377   1.957  0.0214  0.7797  0.1871
    3MOL    C24 4406   6.088  -2.289   2.140  0.6806 -0.1217  0.3625
    3MOL     F4 4407   5.969  -2.233   2.155  0.1861  0.3368  0.2178
    3MOL     F5 4408   6.178  -2.212   2.198 -0.0911  0.5871 -0.5853
    3MOL     F6 4409   6.079  -2.405   2.209  0.1929  0.0316 -0.3742
    3MOL     O2 4410   6.609  -2.442   2.251  1.1489  0.7259  0.3103
    3MOL    C25 4411   6.302  -1.857   1.896  0.1960  0.3491 -0.2800
    3MOL     N4 4412   6.269  -1.768   1.798 -0.3353  0.7617 -0.0429
    3MOL    C26 4413   6.163  -1.814   1.725  0.4856  0.1713  0.0923
    3MOL     O3 4414   6.111  -1.758   1.627 -0.3092  0.6263 -0.0577
    3MOL    C27 4415   7.326  -2.243   2.013  0.0792 -0.1646  0.5862
    3MOL    C28 4416   7.395  -2.210   1.897  0.1066  0.4562  0.3530
    3MOL    C29 4417   7.241  -2.145   2.067  0.0378 -0.6911 -0.3604
    3MOL    C30 4418   7.369  -2.092   1.826  0.0620 -0.4453 -0.2972
    3MOL    C31 4419   7.205  -2.032   1.988 -0.3021 -0.0832  0.0384
    3MOL    C32 4420   7.273  -2.005   1.868  0.1426 -0.8201  0.4947
    3MOL    C33 4421   7.237  -1.895   1.790 -0.5119  0.2279  0.1211
    3MOL     N5 4422   7.244  -1.759   1.834  0.1417  0.1951  0.3497
    3MOL     N6 4423   7.275  -1.891   1.648 -0.2571  0.2560 -0.2251
    3MOL    C34 4424   7.315  -1.695   1.731  0.8645 -0.5580 -0.3636
    3MOL    C35 4425   7.348  -1.775   1.632  0.0487  0.6679 -0.3166
    3MOL    C36 4426   7.182  -1.932   1.542  0.0632 -0.1918  0.3812
    3MOL     H1 4427   7.227  -2.017   1.491 -2.9889  1.4562  0.9154
    3MOL     H2 4428   7.159  -1.849   1.469  3.0339  0.8732 -1.3345
    3MOL     H3 4429   7.098  -1.964   1.595  1.2541 -0.6600  2.2366
    3MOL    C37 4430   7.204  -1.695   1.956  0.2997  0.8456 -0.4868
    3MOL    C38 4431   7.123  -1.583   1.953 -0.4262 -0.2166  0.0300
    3MOL    C39 4432   7.083  -1.520   2.076 -0.7088 -0.1421 -0.5005
    3MOL    C40 4433   7.126  -1.566   2.202  0.1175 -0.6334  0.3494
    3MOL    C41 4434   7.214  -1.677   2.201  0.3219  0.1509 -0.8938
    3MOL    C42 4435   7.257  -1.733   2.081  0.0920  0.6848  0.3775
    3MOL    C43 4436   7.441  -1.747   1.523  0.1632 -0.1368 -0.2425
    3MOL     F7 4437   7.497  -1.853   1.459 -0.5632 -0.4039 -0.1349
    3MOL     F8 4438   7.546  -1.687   1.573  0.2708  0.4766  0.1462
    3MOL     F9 4439   7.392  -1.662   1.431  0.1267  0.2753 -0.1316
    3MOL    C44 4440   7.333  -2.549   2.198  0.0187 -0.4279  0.4110
    3MOL    C45 4441   7.461  -2.522   2.193  0.7356  0.3148 -0.0541
    3MOL    C46 4442   7.573  -2.610   2.247 -0.5099  0.3813  0.5470
    3MOL    F10 4443   7.606  -2.710   2.160 -0.6308  0.0704 -0.0008
    3MOL    F11 4444   7.686  -2.535   2.277  0.2299  0.4590 -0.6424
    3MOL     H4 4445   7.281  -2.631   2.249  0.7728  0.0881  0.3647
    3MOL     H5 4446   7.113  -2.309   1.929 -2.1385 -0.1345  1.4949
    3MOL     H6 4447   6.860  -2.311   1.919 -0.4895 -0.0088 -0.4954
    3MOL     H7 4448   7.076  -2.561   2.293  0.7460  1.1780  0.2229
    3MOL     H8 4449   6.828  -2.565   2.258  2.2994 -0.0341  0.0211
    3MOL     H9 4450   6.333  -2.393   2.174  0.8014 -2.4270  0.4347
    3MOL    H10 4451   6.245  -2.356   1.742  0.9717  0.0236 -0.0735
    3MOL    H11 4452   6.471  -2.434   1.702 -0.8035  1.4137  0.1013
    3MOL    H12 4453   5.975  -2.237   1.769  0.2427  1.2024  2.2673
    3MOL    H13 4454   6.286  -2.107   2.028 -0.4747 -0.1306 -2.7419
    3MOL    H14 4455   5.978  -2.009   1.651 -0.5782  2.5450  2.3056
    3MOL     O4 4456   6.392  -1.842   1.981 -0.0090 -0.3984  0.2728
    3MOL    H15 4457   7.468  -2.278   1.861 -0.2825 -2.1057  0.3813
    3MOL    H16 4458   7.423  -2.071   1.736 -1.2933 -0.2358 -1.7042
    3MOL    H17 4459   7.190  -2.158   2.162  1.6556 -0.4236  1.6006
    3MOL    H18 4460   7.012  -1.436   2.076  0.5742 -0.4063  2.7357
    3MOL    H19 4461   7.103  -1.540   1.854  4.1847 -0.7207  0.4344
    3MOL    H20 4462   7.244  -1.715   2.300  0.5084 -1.4783  1.8194
    3MOL    H21 4463   7.334  -1.811   2.083 -0.9785  0.8746  1.3684
    3MOL    H22 4464   7.342  -1.591   1.755  0.8534  3.0537 -1.1982
    3MOL    H23 4465   7.120  -1.968   2.018 -0.1835  1.7634  1.4750
    3MOL    F12 4466   7.533  -2.681   2.359  0.7683 -0.4291  0.4733
    3MOL    C47 4467   7.547  -2.287   2.200  0.0673  0.1584 -0.9114
    3MOL    H24 4468   7.652  -2.310   2.175 -0.0534  0.4149  0.0257
    3MOL    H25 4469   7.528  -2.298   2.314 -0.6323 -0.4335  1.3067
    3MOL    H26 4470   7.510  -2.190   2.162 -2.5640 -0.0908  0.2846
    3MOL     N1 4471   6.266  -1.972   1.400  0.4610  0.2823 -0.2368
    3MOL     N2 4472   6.210  -1.877   1.200  0.1444  0.3730  0.0728
    3MOL     C1 4473   6.277  -1.854   1.323 -0.1363  0.3036  0.1454
    3MOL     C2 4474   6.175  -1.777   1.108 -0.6713 -0.3695 -0.5925
    3MOL     C3 4475   6.080  -1.683   1.152  0.2920  0.2719  0.5094
    3MOL     C4 4476   6.033  -1.580   1.063  0.1129 -0.2054 -0.1645
    3MOL     C5 4477   6.085  -1.575   0.933  0.0027 -0.1868 -0.3455
    3MOL     C6 4478   6.173  -1.679   0.892 -0.0429 -0.2407 -0.7338
    3MOL     C7 4479   6.217  -1.781   0.977 -0.1412 -0.2407 -0.3716
    3MOL     N3 4480   6.054  -1.468   0.860 -0.5799 -0.8634  0.5742
    3MOL     C8 4481   6.112  -1.340   0.884  0.1216  0.6482 -0.2928
    3MOL     C9 4482   6.034  -1.245   0.794 -0.0137 -0.3667  0.2092
    3MOL    C10 4483   5.940  -1.314   0.727 -0.6225 -0.4373 -0.5394
    3MOL    C11 4484   5.948  -1.458   0.770 -0.0798 -0.0324  0.6410
    3MOL     O1 4485   5.866  -1.545   0.752  0.3792  0.5212 -0.5268
    3MOL    C12 4486   6.055  -1.106   0.776 -0.2783  0.2967 -0.1137
    3MOL    C13 4487   5.973  -1.037   0.685  0.3727  0.4360  0.4125
    3MOL    C14 4488   5.877  -1.115   0.611 -0.6661 -0.8212 -0.4710
    3MOL    C15 4489   5.859  -1.255   0.630 -0.2878 -0.5514  0.1136
    3MOL    C16 4490   5.998  -0.812   0.804 -0.2049  1.0500  0.0035
    3MOL    C17 4491   6.097  -0.720   0.836  0.4182  0.2593 -0.2236
    3MOL    C18 4492   6.117  -0.681   0.970 -0.5732 -0.5884 -0.1490
    3MOL    C19 4493   5.921  -0.869   0.915  0.5904 -0.6547  0.8295
    3MOL    C20 4494   6.048  -0.738   1.071 -0.1216  1.0377 -0.1295
    3MOL    C21 4495   5.947  -0.832   1.049 -0.3336  0.1393  0.3412
    3MOL    C22 4496   5.997  -0.881   0.664  0.2535 -0.3604  0.4896
    3MOL    C23 4497   6.127  -0.864   0.587 -0.1392 -0.0540 -0.1698
    3MOL     F1 4498   6.119  -0.944   0.479 -0.3031  0.2761 -0.1984
    3MOL     F2 4499   6.223  -0.909   0.662  0.0011  0.0287 -0.6965
    3MOL     F3 4500   6.161  -0.734   0.557  0.3779  0.7408 -0.4774
    3MOL    C24 4501   5.880  -0.813   0.583  0.1982  0.0714  0.7191
    3MOL     F4 4502   5.896  -0.679   0.568  0.3384  0.0553 -0.5684
    3MOL     F5 4503   5.763  -0.846   0.639  0.4342  0.3446  0.3056
    3MOL     F6 4504   5.874  -0.862   0.456 -0.1260 -0.1726  0.8017
    3MOL     O2 4505   6.208  -1.324   0.956  0.2668 -0.1028 -0.5662
    3MOL    C25 4506   6.211  -0.578   1.030 -0.3424  0.5131 -0.1181
    3MOL     N4 4507   6.186  -0.580   1.163 -0.1417  0.3453  0.0236
    3MOL    C26 4508   6.087  -0.671   1.198 -0.4051 -0.3207  0.0339
    3MOL     O3 4509   6.038  -0.682   1.310  0.2672  0.3713 -0.0975
    3MOL    C27 4510   6.336  -1.735   1.354  0.6955 -0.4821  0.6304
    3MOL    C28 4511   6.249  -1.634   1.406  0.2780 -0.1370 -0.2318
    3MOL    C29 4512   6.473  -1.707   1.331  0.6132  0.6686 -0.2660
    3MOL    C30 4513   6.290  -1.506   1.419  0.3864 -0.4498  0.1519
    3MOL    C31 4514   6.521  -1.579   1.357  0.0720  0.0082 -0.0245
    3MOL    C32 4515   6.428  -1.481   1.398  0.3424  0.1512 -0.5976
    3MOL    C33 4516   6.486  -1.364   1.439  0.1232  0.1767 -0.5219
    3MOL     N5 4517   6.517  -1.326   1.575  0.9850  0.3866 -0.0015
    3MOL     N6 4518   6.472  -1.251   1.363 -0.2176 -0.0781  0.7905
    3MOL    C34 4519   6.520  -1.186   1.568 -0.3726  0.1876 -0.3405
    3MOL    C35 4520   6.502  -1.141   1.443 -0.1130  0.1307 -0.3353
    3MOL    C36 4521   6.489  -1.248   1.211 -0.4995 -0.4761 -0.5166
    3MOL     H1 4522   6.540  -1.156   1.171 -1.9898 -1.3247 -0.4155
    3MOL     H2 4523   6.384  -1.242   1.158 -1.7148 -0.0379  1.9183
    3MOL     H3 4524   6.540  -1.335   1.167  2.2004  3.1227 -1.3777
    3MOL    C37 4525   6.478  -1.416   1.678  0.5742 -0.3697 -0.7173
    3MOL    C38 4526   6.545  -1.535   1.691  0.8130  0.5675 -1.1972
    3MOL    C39 4527   6.481  -1.651   1.741 -0.1542 -0.0791 -0.0764
    3MOL    C40 4528   6.341  -1.647   1.773  0.6767 -0.2918  0.1342
    3MOL    C41 4529   6.272  -1.525   1.763 -0.1054  0.0735  0.4627
    3MOL    C42 4530   6.340  -1.412   1.713  0.1932 -0.0664  0.0476
    3MOL    C43 4531   6.505  -0.998   1.406  0.1610  0.2040 -0.1655
    3MOL     F7 4532   6.504  -0.970   1.269  0.2485  0.7786 -0.0397
    3MOL     F8 4533   6.612  -0.935   1.455 -0.1853  0.1143 -0.0613
    3MOL     F9 4534   6.393  -0.943   1.467  0.5545  0.1958 -0.7568
    3MOL    C44 4535   6.169  -2.010   1.198  0.0247 -0.2173 -0.1673
    3MOL    C45 4536   6.200  -2.067   1.314  0.2769 -0.4378  1.1263
    3MOL    C46 4537   6.175  -2.210   1.346 -0.3354  0.4880 -0.6931
    3MOL    F10 4538   6.275  -2.271   1.418 -0.2129  0.4774  0.4268
    3MOL    F11 4539   6.067  -2.213   1.427 -0.5297  0.5809  0.2128
    3MOL     H4 4540   6.107  -2.048   1.119  1.6186 -1.1998  0.1198
    3MOL     H5 4541   6.056  -1.676   1.255  0.5209  1.0654 -1.6679
    3MOL     H6 4542   5.968  -1.497   1.088  0.4969  0.1047 -1.8217
    3MOL     H7 4543   6.285  -1.855   0.933 -0.8411 -1.1156  0.7861
    3MOL     H8 4544   6.219  -1.690   0.796  0.0963 -1.5359  2.4069
    3MOL     H9 4545   6.124  -1.056   0.848 -1.4787 -0.9126 -0.0793
    3MOL    H10 4546   5.812  -1.063   0.539  0.1429 -2.9662  1.1931
    3MOL    H11 4547   5.782  -1.310   0.576  0.1873 -0.9381  2.8159
    3MOL    H12 4548   5.846  -0.950   0.896 -1.0034  1.7003  0.9721
    3MOL    H13 4549   6.163  -0.675   0.764 -0.2978 -1.3961 -2.8128
    3MOL    H14 4550   5.882  -0.868   1.131 -0.1095 -2.3272 -0.6051
    3MOL     O4 4551   6.288  -0.507   0.968  0.3389 -0.0342 -0.0546
    3MOL    H15 4552   6.144  -1.663   1.422  0.2135  1.8286  1.7638
    3MOL    H16 4553   6.218  -1.433   1.459 -0.4845  0.0368 -1.5927
    3MOL    H17 4554   6.542  -1.787   1.301 -1.4584 -0.7114 -1.5591
    3MOL    H18 4555   6.527  -1.743   1.735  0.3252  2.5803 -0.1866
    3MOL    H19 4556   6.642  -1.548   1.650 -2.2797 -0.3358  1.6852
    3MOL    H20 4557   6.163  -1.509   1.785 -2.0725  1.7386 -1.2334
    3MOL    H21 4558   6.284  -1.321   1.681  1.9656 -1.7535 -0.6481
    3MOL    H22 4559   6.523  -1.130   1.654 -1.3248 -0.1456 -0.1468
    3MOL    H23 4560   6.629  -1.567   1.359 -0.7437  0.3651 -0.3242
    3MOL    F12 4561   6.159  -2.295   1.246 -0.1577 -0.4674  0.1926
    3MOL    C47 4562   6.385  -2.031   1.478  0.0988 -0.2294  0.0022
    3MOL    H24 4563   6.462  -2.080   1.426 -1.0145  0.9195  2.6233
    3MOL    H25 4564   6.342  -2.114   1.544 -0.0689 -0.5823  1.6884
    3MOL    H26 4565   6.418  -1.959   1.546  0.7523 -1.8557 -1.3115
    3MOL     N1 4566   6.672  -0.872   1.919  0.0991 -0.4217 -0.4735
    3MOL     N2 4567   6.723  -0.701   2.054  0.8300  0.7056 -0.2150
    3MOL     C1 4568   6.702  -0.733   1.920  0.6984  0.0156 -0.3225
    3MOL     C2 4569   6.748  -0.574   2.104  0.2765 -0.3643 -0.0104
    3MOL     C3 4570   6.860  -0.493   2.062 -0.6029 -0.2239 -0.8261
    3MOL     C4 4571   6.893  -0.369   2.126 -0.4878  0.2815 -0.5740
    3MOL     C5 4572   6.813  -0.325   2.233  0.0699 -0.4664  0.2128
    3MOL     C6 4573   6.705  -0.406   2.280 -0.5119 -1.3394  0.5101
    3MOL     C7 4574   6.673  -0.524   2.213 -0.1073  0.3109 -0.2677
    3MOL     N3 4575   6.854  -0.212   2.320  1.2654  0.2145 -0.2677
    3MOL     C8 4576   6.785  -0.093   2.328  0.3131  0.2632  0.1535
    3MOL     C9 4577   6.844  -0.025   2.446  0.0784 -0.0376 -0.2872
    3MOL    C10 4578   6.955  -0.099   2.487 -0.2844  0.1831  0.3962
    3MOL    C11 4579   6.960  -0.226   2.409  0.1200  0.1489 -0.2701
    3MOL     O1 4580   7.026  -0.330   2.426  0.7408  0.5636 -0.6862
    3MOL    C12 4581   6.812   0.101   2.501 -0.4111  0.9505  0.3413
    3MOL    C13 4582   6.884   0.147   2.615  0.2214  0.1326 -0.0447
    3MOL    C14 4583   6.973   0.058   2.680  0.1091  0.0498  0.2213
    3MOL    C15 4584   7.004  -0.065   2.618  0.1160  0.2142  0.0165
    3MOL    C16 4585   6.778   0.373   2.576 -0.4980 -0.1710 -0.2769
    3MOL    C17 4586   6.637   0.400   2.564 -0.5172  0.0980  0.2167
    3MOL    C18 4587   6.591   0.458   2.441 -0.2146  0.2473 -0.2071
    3MOL    C19 4588   6.861   0.402   2.464 -0.9958  0.1824  0.3775
    3MOL    C20 4589   6.677   0.486   2.336 -0.3058  0.4105  0.0053
    3MOL    C21 4590   6.810   0.459   2.349  0.1949 -0.2383 -0.3799
    3MOL    C22 4591   6.840   0.282   2.690 -0.0487  0.4453  0.5830
    3MOL    C23 4592   6.732   0.233   2.791 -0.2294  0.9356 -0.0499
    3MOL     F1 4593   6.645   0.145   2.737  0.5368  0.3538  0.2383
    3MOL     F2 4594   6.664   0.338   2.835  0.7163 -0.7188 -0.5236
    3MOL     F3 4595   6.795   0.175   2.898  0.0219  0.2519  0.4835
    3MOL    C24 4596   6.956   0.354   2.755  0.6086  0.4525 -0.5719
    3MOL     F4 4597   6.918   0.478   2.798  0.3207 -0.2395 -0.2866
    3MOL     F5 4598   7.057   0.378   2.674  0.0438  0.2978  0.1386
    3MOL     F6 4599   7.032   0.293   2.856 -0.1726  0.2238 -0.1194
    3MOL     O2 4600   6.691  -0.043   2.260  0.0148  0.2331 -0.0343
    3MOL    C25 4601   6.455   0.453   2.382 -0.2577  0.4508 -0.0604
    3MOL     N4 4602   6.468   0.481   2.245 -0.1165 -0.4162  0.0194
    3MOL    C26 4603   6.597   0.509   2.216 -1.0077  0.2163 -0.1722
    3MOL     O3 4604   6.642   0.526   2.103 -0.1532 -0.0081 -0.1538
    3MOL    C27 4605   6.682  -0.642   1.815 -0.1974  0.1370 -0.7413
    3MOL    C28 4606   6.792  -0.580   1.759  0.3671 -0.0351  0.4208
    3MOL    C29 4607   6.556  -0.576   1.807 -0.5131 -0.2270  0.2729
    3MOL    C30 4608   6.780  -0.457   1.691 -0.6596 -0.1693  0.3810
    3MOL    C31 4609   6.536  -0.464   1.726 -0.2112  0.6953 -0.3003
    3MOL    C32 4610   6.653  -0.409   1.668  0.0423  0.5471  0.1327
    3MOL    C33 4611   6.647  -0.305   1.573  0.0136 -0.0277 -0.5372
    3MOL     N5 4612   6.547  -0.266   1.476  0.2004  0.1351 -0.2522
    3MOL     N6 4613   6.732  -0.191   1.580 -0.2489 -0.0450 -0.5208
    3MOL    C34 4614   6.598  -0.154   1.412  0.1118  0.0924  0.3821
    3MOL    C35 4615   6.705  -0.104   1.474  0.0637  0.3252 -0.0965
    3MOL    C36 4616   6.777  -0.145   1.706  0.4359 -0.0762  0.6761
    3MOL     H1 4617   6.803  -0.038   1.702 -1.2074 -1.6918 -1.7767
    3MOL     H2 4618   6.873  -0.203   1.734  1.8679 -2.8934 -1.2755
    3MOL     H3 4619   6.709  -0.167   1.789  1.5122 -3.9822 -1.3643
    3MOL    C37 4620   6.447  -0.349   1.417 -0.5440 -0.4633  0.2608
    3MOL    C38 4621   6.449  -0.488   1.416 -0.8346 -1.0203  0.3072
    3MOL    C39 4622   6.354  -0.568   1.347  0.2690  0.2115  0.2793
    3MOL    C40 4623   6.264  -0.499   1.257  0.2457  0.4451  0.0589
    3MOL    C41 4624   6.261  -0.358   1.251 -0.4669 -0.5075 -0.2732
    3MOL    C42 4625   6.350  -0.284   1.329  0.2351 -0.1919  0.2316
    3MOL    C43 4626   6.787   0.016   1.436 -0.3145  0.0653 -0.8156
    3MOL     F7 4627   6.831   0.090   1.540 -0.1392 -0.2977  0.4871
    3MOL     F8 4628   6.712   0.095   1.350 -0.2594  0.3302 -0.2056
    3MOL     F9 4629   6.893  -0.035   1.374 -0.6252  0.5523 -0.0471
    3MOL    C44 4630   6.711  -0.814   2.127  0.5411  0.5999  0.4345
    3MOL    C45 4631   6.678  -0.915   2.052  0.2502  1.2444 -0.1223
    3MOL    C46 4632   6.677  -1.059   2.099 -0.5304 -0.3068 -0.2996
    3MOL    F10 4633   6.719  -1.068   2.234  0.1384  0.2203 -0.2261
    3MOL    F11 4634   6.557  -1.119   2.071  0.3888  0.4709 -0.2173
    3MOL     H4 4635   6.715  -0.816   2.237  4.0944 -0.6890 -0.3039
    3MOL     H5 4636   6.907  -0.530   1.982 -2.0692 -0.8066 -0.0554
    3MOL     H6 4637   6.973  -0.307   2.086 -0.7585 -0.0211 -1.7209
    3MOL     H7 4638   6.609  -0.599   2.262 -1.3442 -0.0275  1.6844
    3MOL     H8 4639   6.648  -0.371   2.366  2.3678  0.8045  1.5448
    3MOL     H9 4640   6.725   0.160   2.456  4.2878  1.4094 -1.0489
    3MOL    H10 4641   7.006   0.085   2.773 -1.6454  0.7059 -2.7116
    3MOL    H11 4642   7.071  -0.131   2.672 -0.2672 -0.8476 -1.1906
    3MOL    H12 4643   6.962   0.369   2.453 -2.6432 -0.7233 -0.8241
    3MOL    H13 4644   6.554   0.352   2.628  0.9289  0.8334  2.8319
    3MOL    H14 4645   6.873   0.462   2.268 -2.5301  0.1908 -0.2737
    3MOL     O4 4646   6.354   0.422   2.437  0.0870 -0.6021  0.8632
    3MOL    H15 4647   6.893  -0.622   1.783  0.8532  0.7691  1.2262
    3MOL    H16 4648   6.872  -0.410   1.649  1.3731 -0.7654 -1.8870
    3MOL    H17 4649   6.473  -0.612   1.869  1.0101  1.5332 -1.1304
    3MOL    H18 4650   6.358  -0.676   1.347  1.9786  0.8624  1.3719
    3MOL    H19 4651   6.528  -0.528   1.481  1.0476  2.4852  0.1394
    3MOL    H20 4652   6.184  -0.317   1.181 -1.4177  0.4559 -0.2554
    3MOL    H21 4653   6.347  -0.174   1.321 -0.7452 -0.1122  0.0137
    3MOL    H22 4654   6.555  -0.112   1.321  0.0611 -2.8442  0.5369
    3MOL    H23 4655   6.434  -0.415   1.720 -1.3499 -1.3145  0.7135
    3MOL    F12 4656   6.766  -1.143   2.035  0.3247 -0.3447  0.6321
    3MOL    C47 4657   6.572  -0.925   1.824 -0.6861 -0.3269 -0.9743
    3MOL    H24 4658   6.499  -0.972   1.887 -0.0430 -1.7007 -1.7947
    3MOL    H25 4659   6.612  -1.014   1.764  2.4915  0.4541  1.0758
    3MOL    H26 4660   6.534  -0.845   1.763  0.6439 -2.1392  1.0246
    3MOL     N1 4661   6.660   0.898   2.072  0.5742  0.1157  0.8842
    3MOL     N2 4662   6.771   0.891   1.878  0.1312 -0.2693 -0.0111
    3MOL     C1 4663   6.648   0.855   1.939  0.1167 -0.8626 -0.4302
    3MOL     C2 4664   6.809   0.896   1.744  0.0173 -0.2296  0.0116
    3MOL     C3 4665   6.730   0.840   1.643  0.7049  0.0098 -0.3728
    3MOL     C4 4666   6.773   0.841   1.509  0.1652  0.1838 -0.3887
    3MOL     C5 4667   6.898   0.887   1.468 -0.2413  0.1580  1.0031
    3MOL     C6 4668   6.982   0.933   1.571 -0.0473 -0.3111 -0.1266
    3MOL     C7 4669   6.940   0.941   1.705  0.3766  0.1873 -0.2480
    3MOL     N3 4670   6.945   0.893   1.327 -0.6187  0.1015 -0.4055
    3MOL     C8 4671   7.079   0.859   1.290  0.3636  0.3356  0.0439
    3MOL     C9 4672   7.094   0.892   1.144  0.1130 -0.0806  0.3005
    3MOL    C10 4673   6.968   0.926   1.100 -0.1478 -0.3729 -0.0193
    3MOL    C11 4674   6.874   0.937   1.219  0.4587 -0.1565  0.1078
    3MOL     O1 4675   6.756   0.961   1.217 -0.0340  0.5426  0.6352
    3MOL    C12 4676   7.212   0.894   1.061 -0.1733  0.3045 -0.0002
    3MOL    C13 4677   7.203   0.952   0.936 -0.3606  0.3197  0.2144
    3MOL    C14 4678   7.072   0.992   0.895 -0.1549 -0.2878 -0.4900
    3MOL    C15 4679   6.954   0.983   0.971  0.3700  0.1257 -0.3832
    3MOL    C16 4680   7.306   1.120   0.799  0.4337  0.3535  0.2149
    3MOL    C17 4681   7.270   1.209   0.900 -0.3012 -1.1589  0.0312
    3MOL    C18 4682   7.229   1.336   0.866 -0.1044 -0.4741  0.2054
    3MOL    C19 4683   7.339   1.170   0.668 -0.2822 -0.0366 -0.2273
    3MOL    C20 4684   7.243   1.380   0.734  0.5944  0.5188  0.6728
    3MOL    C21 4685   7.299   1.307   0.632  0.4228 -0.5826  0.7225
    3MOL    C22 4686   7.327   0.980   0.852  0.2122 -0.4160  0.2472
    3MOL    C23 4687   7.466   0.961   0.926  1.0249 -0.1350 -0.4570
    3MOL     F1 4688   7.562   1.012   0.850 -0.2260 -0.5772 -0.1327
    3MOL     F2 4689   7.485   0.832   0.952  0.5901  0.8922 -0.8055
    3MOL     F3 4690   7.476   1.033   1.044 -0.4089  0.0116  0.0410
    3MOL    C24 4691   7.318   0.883   0.728 -0.0604 -0.2960 -0.3131
    3MOL     F4 4692   7.290   0.754   0.773  0.4912 -0.3560 -0.1131
    3MOL     F5 4693   7.431   0.879   0.657 -0.6085  0.6719  0.3218
    3MOL     F6 4694   7.227   0.922   0.638  0.2851 -0.2586  0.3979
    3MOL     O2 4695   7.165   0.805   1.364 -0.1367 -0.4800 -0.2332
    3MOL    C25 4696   7.130   1.431   0.929 -0.1582 -0.4359 -0.9245
    3MOL     N4 4697   7.099   1.533   0.843 -0.3364  1.2486  0.2613
    3MOL    C26 4698   7.162   1.513   0.725 -0.0891  0.6260 -0.9261
    3MOL     O3 4699   7.155   1.593   0.636 -0.0153 -0.2356  0.0932
    3MOL    C27 4700   6.539   0.787   1.879  0.1094 -0.6085 -0.1987
    3MOL    C28 4701   6.541   0.650   1.859 -0.6586 -0.7546 -0.1241
    3MOL    C29 4702   6.429   0.860   1.826 -0.3860  0.0589  0.2647
    3MOL    C30 4703   6.443   0.584   1.787  0.1496 -0.6165 -0.2117
    3MOL    C31 4704   6.327   0.795   1.758  0.1493 -0.8254  0.5250
    3MOL    C32 4705   6.328   0.651   1.748  0.6362 -0.0709  0.2257
    3MOL    C33 4706   6.215   0.576   1.717 -0.3809  0.2832  0.5083
    3MOL     N5 4707   6.133   0.503   1.807  0.9392 -0.6000  0.0704
    3MOL     N6 4708   6.144   0.584   1.592  0.6178 -0.0168  0.1016
    3MOL    C34 4709   6.019   0.465   1.733 -0.2762 -0.4996  0.2997
    3MOL    C35 4710   6.027   0.501   1.606 -0.3856 -0.6285 -0.2003
    3MOL    C36 4711   6.139   0.702   1.511 -0.2491 -0.3199  0.3928
    3MOL     H1 4712   6.109   0.665   1.413 -1.6341 -1.5452  1.3953
    3MOL     H2 4713   6.230   0.757   1.500 -2.2678  1.6799 -2.4778
    3MOL     H3 4714   6.064   0.773   1.552 -1.7907 -1.3252  1.0015
    3MOL    C37 4715   6.184   0.484   1.936  0.1303 -0.3717  0.3885
    3MOL    C38 4716   6.191   0.593   2.025  0.2769  0.1421  0.6187
    3MOL    C39 4717   6.280   0.587   2.130  0.1691  0.0000 -0.2563
    3MOL    C40 4718   6.363   0.478   2.147  0.6791 -0.2642 -0.4344
    3MOL    C41 4719   6.338   0.363   2.072 -0.2771 -0.1933  0.1276
    3MOL    C42 4720   6.254   0.361   1.961  0.3578  0.1664  0.3564
    3MOL    C43 4721   5.923   0.464   1.500  0.1871  0.6866 -0.3046
    3MOL     F7 4722   5.983   0.478   1.373 -0.3314 -0.3267 -0.2917
    3MOL     F8 4723   5.814   0.547   1.507 -0.3029  0.4260  0.6360
    3MOL     F9 4724   5.866   0.344   1.515 -0.2273 -0.0620 -0.3486
    3MOL    C44 4725   6.863   0.926   1.988 -0.1105  0.0704  0.7763
    3MOL    C45 4726   6.792   0.916   2.103  0.3904 -0.6327 -0.4755
    3MOL    C46 4727   6.846   0.933   2.246  0.1993 -0.3318 -1.1242
    3MOL    F10 4728   6.775   0.870   2.346  0.0672 -0.2150 -0.2889
    3MOL    F11 4729   6.971   0.894   2.264  0.6944 -0.3181  0.0492
    3MOL     H4 4730   6.970   0.947   1.978 -2.0814 -2.0440 -0.5155
    3MOL     H5 4731   6.632   0.795   1.666 -1.0652  1.4719 -0.5134
    3MOL     H6 4732   6.714   0.790   1.430  1.9453 -1.6569 -2.2401
    3MOL     H7 4733   7.006   0.983   1.781 -2.2027  1.6804  2.1218
    3MOL     H8 4734   7.078   0.969   1.554 -1.9902 -0.5891  1.5379
    3MOL     H9 4735   7.299   0.858   1.106 -0.3074  2.6713  0.0268
    3MOL    H10 4736   7.058   1.040   0.802 -0.8752 -0.7756  1.9456
    3MOL    H11 4737   6.870   1.041   0.936 -2.4605 -1.5854 -0.0528
    3MOL    H12 4738   7.370   1.103   0.587 -0.2309  1.5803 -2.0202
    3MOL    H13 4739   7.249   1.178   1.000  0.3818  0.6790 -0.2608
    3MOL    H14 4740   7.323   1.358   0.531  1.9801 -1.8820  0.5333
    3MOL     O4 4741   7.093   1.439   1.046  0.4258  0.3537 -0.1723
    3MOL    H15 4742   6.624   0.593   1.903 -0.8233 -1.6746 -0.0496
    3MOL    H16 4743   6.452   0.478   1.771  0.9218 -1.6798 -1.5284
    3MOL    H17 4744   6.416   0.967   1.845  1.7918 -1.2789 -1.4889
    3MOL    H18 4745   6.304   0.674   2.191  0.1969 -0.3372  1.7742
    3MOL    H19 4746   6.144   0.686   2.001 -1.5593 -0.1267  0.9850
    3MOL    H20 4747   6.402   0.278   2.096 -2.2346 -0.0233  0.6549
    3MOL    H21 4748   6.266   0.277   1.890 -3.9484  2.4565 -0.6904
    3MOL    H22 4749   5.944   0.403   1.778 -0.8799 -0.7176  0.0786
    3MOL    H23 4750   6.243   0.853   1.724 -2.5244  0.5413  1.9054
    3MOL    F12 4751   6.838   1.060   2.277 -0.0144 -0.1632  0.3570
    3MOL    C47 4752   6.546   0.875   2.154 -0.0503  0.1572 -1.2959
    3MOL    H24 4753   6.483   0.966   2.140 -0.4393  2.3783  0.8441
    3MOL    H25 4754   6.566   0.862   2.269  0.8167  1.8654 -0.0064
    3MOL    H26 4755   6.496   0.781   2.122  1.3807 -1.3036 -0.9421
    3MOL     N1 4756   7.473   2.157   0.889  0.3350 -1.3491  0.5848
    3MOL     N2 4757   7.461   2.176   0.655 -0.1966  0.2804 -0.2627
    3MOL     C1 4758   7.382   2.154   0.778  0.1127 -0.1482 -0.0994
    3MOL     C2 4759   7.424   2.257   0.552 -0.3000 -0.0676  0.8947
    3MOL     C3 4760   7.291   2.296   0.523 -0.0514 -0.1362  0.1109
    3MOL     C4 4761   7.272   2.393   0.419  0.2655 -0.6743  0.4743
    3MOL     C5 4762   7.382   2.444   0.345  0.9636  0.0821  0.3027
    3MOL     C6 4763   7.514   2.394   0.364  0.4692  0.1688  0.0518
    3MOL     C7 4764   7.530   2.304   0.467  0.5269  0.2305 -0.8878
    3MOL     N3 4765   7.371   2.565   0.269  0.2534  0.0684 -0.0143
    3MOL     C8 4766   7.448   2.675   0.305  0.3571  0.6664 -0.4430
    3MOL     C9 4767   7.419   2.776   0.198 -1.1162 -0.6396  0.1883
    3MOL    C10 4768   7.333   2.719   0.109  0.4166  0.2351  0.7119
    3MOL    C11 4769   7.302   2.579   0.146  0.6572 -0.5165 -0.3349
    3MOL     O1 4770   7.228   2.494   0.097 -0.1497  0.6092  0.1769
    3MOL    C12 4771   7.478   2.896   0.186  0.3334  0.0637 -0.2812
    3MOL    C13 4772   7.438   2.981   0.075  0.2123 -0.5799 -0.2803
    3MOL    C14 4773   7.341   2.924  -0.022  0.1521  0.3156  0.3309
    3MOL    C15 4774   7.287   2.792  -0.007 -0.1994 -0.6368 -0.6778
    3MOL    C16 4775   7.635   3.057  -0.064 -0.7371  0.2917 -0.4422
    3MOL    C17 4776   7.668   2.926  -0.077  0.0839 -0.4349  0.6718
    3MOL    C18 4777   7.775   2.890  -0.162 -0.1927  0.0153 -0.1502
    3MOL    C19 4778   7.704   3.152  -0.144 -0.0959  0.0358  0.5069
    3MOL    C20 4779   7.843   2.980  -0.229 -0.5190  0.1919  0.9621
    3MOL    C21 4780   7.814   3.114  -0.228  0.3253 -0.3825 -0.0980
    3MOL    C22 4781   7.524   3.103   0.038 -0.1295  0.1391 -0.1681
    3MOL    C23 4782   7.430   3.210  -0.028  0.3045 -0.9090 -0.3655
    3MOL     F1 4783   7.478   3.339  -0.016  0.1225  0.2971 -0.2221
    3MOL     F2 4784   7.303   3.211   0.020 -0.0132 -0.4472 -0.2369
    3MOL     F3 4785   7.419   3.189  -0.160  0.1509 -0.3328 -0.4300
    3MOL    C24 4786   7.590   3.168   0.170 -0.2423 -0.0816 -0.1937
    3MOL     F4 4787   7.688   3.084   0.214 -0.0942  0.2343 -0.0475
    3MOL     F5 4788   7.507   3.185   0.279 -0.3036  0.0508 -0.2400
    3MOL     F6 4789   7.649   3.287   0.161 -0.1110 -0.3765 -0.2585
    3MOL     O2 4790   7.524   2.683   0.396 -0.2815  0.2426 -0.1535
    3MOL    C25 4791   7.834   2.761  -0.194 -0.3671  0.0804 -0.3331
    3MOL     N4 4792   7.936   2.779  -0.278 -0.3864  0.1897  0.4360
    3MOL    C26 4793   7.950   2.911  -0.308  0.1353 -0.2273 -0.0865
    3MOL     O3 4794   8.028   2.951  -0.393  0.0364 -0.3612 -0.6996
    3MOL    C27 4795   7.244   2.135   0.782  0.5073  0.2840 -0.1261
    3MOL    C28 4796   7.177   2.049   0.697  0.4159  0.8172  0.5879
    3MOL    C29 4797   7.167   2.225   0.857 -0.4398 -0.4662 -0.4354
    3MOL    C30 4798   7.034   2.055   0.689  1.0838  0.1914 -0.0502
    3MOL    C31 4799   7.029   2.222   0.864  0.1634  0.1251  0.2099
    3MOL    C32 4800   6.956   2.136   0.779 -0.0095  0.1473  0.1144
    3MOL    C33 4801   6.822   2.112   0.804 -0.4490  0.0441 -0.3468
    3MOL     N5 4802   6.770   1.985   0.828  0.5015 -0.0154  0.7319
    3MOL     N6 4803   6.718   2.205   0.811  0.0269  0.1744 -0.2201
    3MOL    C34 4804   6.633   1.994   0.829  0.2804 -0.7941 -0.0422
    3MOL    C35 4805   6.599   2.122   0.807 -0.1074  0.5738 -0.8870
    3MOL    C36 4806   6.711   2.337   0.752 -0.4350 -0.1693 -0.1880
    3MOL     H1 4807   6.658   2.397   0.823 -0.2648  0.2272 -0.8473
    3MOL     H2 4808   6.666   2.330   0.651 -0.9578 -0.4960 -1.3838
    3MOL     H3 4809   6.817   2.369   0.733 -1.7499  0.6268 -3.5731
    3MOL    C37 4810   6.852   1.875   0.848  0.4065 -0.0549  1.0770
    3MOL    C38 4811   6.962   1.868   0.935 -0.7144  0.3932 -0.0031
    3MOL    C39 4812   7.036   1.748   0.944 -0.1921 -0.6366  0.0730
    3MOL    C40 4813   7.006   1.637   0.860 -0.7524 -0.2672  0.2806
    3MOL    C41 4814   6.891   1.638   0.779  1.1378  0.0870  0.3502
    3MOL    C42 4815   6.823   1.760   0.774  0.1239  0.4708 -0.4508
    3MOL    C43 4816   6.458   2.181   0.812 -0.3558 -0.4601 -0.9033
    3MOL     F7 4817   6.454   2.297   0.884  0.5143 -0.0020 -0.1202
    3MOL     F8 4818   6.372   2.085   0.859 -0.5167  0.0523  0.0507
    3MOL     F9 4819   6.419   2.213   0.690 -0.1092 -0.1425 -0.5641
    3MOL    C44 4820   7.591   2.143   0.697  0.1900 -0.4334  0.2556
    3MOL    C45 4821   7.604   2.131   0.829  0.5920  0.3248  0.1511
    3MOL    C46 4822   7.730   2.112   0.898 -0.4817 -0.0880 -0.1966
    3MOL    F10 4823   7.814   2.037   0.825  0.5208 -0.5550  0.0424
    3MOL    F11 4824   7.785   2.236   0.906  0.6027  0.4547 -0.4682
    3MOL     H4 4825   7.666   2.137   0.617 -0.5027  2.0371  1.4145
    3MOL     H5 4826   7.214   2.274   0.598 -0.7982 -0.0755  0.3619
    3MOL     H6 4827   7.169   2.435   0.421 -0.3465  0.4113  0.7027
    3MOL     H7 4828   7.629   2.282   0.500 -0.8521  1.2815 -0.7592
    3MOL     H8 4829   7.600   2.438   0.302  0.0826 -1.3168 -0.6145
    3MOL     H9 4830   7.541   2.916   0.272  1.4661  1.4783 -1.4011
    3MOL    H10 4831   7.316   2.976  -0.119 -2.5672  1.7926  0.0600
    3MOL    H11 4832   7.234   2.748  -0.090  0.0757  0.8480 -0.2581
    3MOL    H12 4833   7.674   3.261  -0.137 -0.2509  0.0079  0.5844
    3MOL    H13 4834   7.620   2.846  -0.015 -0.5367  0.0858  2.1708
    3MOL    H14 4835   7.879   3.181  -0.281 -2.2773  2.2050  1.3938
    3MOL     O4 4836   7.791   2.660  -0.146 -0.4376  0.5575  0.1833
    3MOL    H15 4837   7.236   1.978   0.634  0.8008  0.0309 -1.0637
    3MOL    H16 4838   6.989   1.995   0.611 -0.3370  5.7333 -0.0184
    3MOL    H17 4839   7.228   2.295   0.915 -0.3961 -0.2639  0.7902
    3MOL    H18 4840   7.123   1.747   1.016  0.7535  1.8933  2.3779
    3MOL    H19 4841   6.980   1.951   1.013  0.5942  2.9480 -2.5523
    3MOL    H20 4842   6.866   1.555   0.720  1.2445  0.1616  3.2910
    3MOL    H21 4843   6.749   1.759   0.692 -2.3369 -0.3247 -0.2678
    3MOL    H22 4844   6.577   1.908   0.850  0.2484  1.6153 -3.0717
    3MOL    H23 4845   6.981   2.274   0.951  0.6665 -2.0649 -1.9949
    3MOL    F12 4846   7.726   2.050   1.017 -0.1097 -0.2972  0.2452
    3MOL    C47 4847   7.435   2.114   1.021  0.5259  1.2714 -0.0696
    3MOL    H24 4848   7.434   2.197   1.099 -1.2727 -0.1430  1.1746
    3MOL    H25 4849   7.499   2.026   1.053  3.7564  1.0127 -0.2160
    3MOL    H26 4850   7.330   2.080   1.025  1.1150  0.1149  0.8716
    3MOL     N1 4851   7.952   2.308   0.191  0.8708 -0.1932  0.1964
    3MOL     N2 4852   7.777   2.174   0.140 -0.5007 -0.1064  0.4273
    3MOL     C1 4853   7.888   2.240   0.083  0.4565 -1.2616  0.1350
    3MOL     C2 4854   7.706   2.063   0.092 -0.0761 -0.3785 -0.2196
    3MOL     C3 4855   7.790   1.967   0.030  0.1217 -0.1568  0.5463
    3MOL     C4 4856   7.751   1.837   0.016  0.3471  0.1843 -0.5741
    3MOL     C5 4857   7.619   1.804   0.049 -0.0216  0.2454  0.1747
    3MOL     C6 4858   7.532   1.897   0.104  0.1304  0.3957  0.1625
    3MOL     C7 4859   7.576   2.029   0.130  0.3668  0.1925 -0.8527
    3MOL     N3 4860   7.580   1.672   0.016 -0.5476 -0.2054 -0.7433
    3MOL     C8 4861   7.575   1.643  -0.118 -0.6667 -0.7477  0.2210
    3MOL     C9 4862   7.562   1.499  -0.135 -0.1153  0.3867  0.2368
    3MOL    C10 4863   7.567   1.448  -0.005 -0.0034  0.5772  0.0867
    3MOL    C11 4864   7.580   1.563   0.096 -0.1580  0.0114 -0.0857
    3MOL     O1 4865   7.590   1.566   0.218 -0.1888  0.5994 -0.5800
    3MOL    C12 4866   7.547   1.420  -0.247  0.6506  1.0312  0.3174
    3MOL    C13 4867   7.537   1.280  -0.231 -0.8344  0.0309 -0.5280
    3MOL    C14 4868   7.549   1.224  -0.098 -0.5953 -0.5864 -0.3908
    3MOL    C15 4869   7.570   1.310   0.015 -0.3180 -0.3825  0.2266
    3MOL    C16 4870   7.380   1.259  -0.402 -0.4205  0.1628  0.4378
    3MOL    C17 4871   7.373   1.330  -0.528 -0.1301 -0.3393  0.6168
    3MOL    C18 4872   7.264   1.407  -0.565  0.1784 -0.0994  0.1738
    3MOL    C19 4873   7.261   1.264  -0.325 -0.2833 -0.4252  0.4943
    3MOL    C20 4874   7.158   1.415  -0.479  0.8755 -0.0977 -0.0854
    3MOL    C21 4875   7.158   1.346  -0.359 -0.1339  0.1709 -0.0572
    3MOL    C22 4876   7.507   1.189  -0.352  0.0126 -0.1544  0.5776
    3MOL    C23 4877   7.629   1.198  -0.459  0.0726 -0.0703 -0.2741
    3MOL     F1 4878   7.693   1.317  -0.463 -0.2898  0.1055  0.2283
    3MOL     F2 4879   7.592   1.158  -0.584  0.4321  0.0194 -0.3639
    3MOL     F3 4880   7.731   1.114  -0.423 -0.0523  0.0515 -0.7053
    3MOL    C24 4881   7.476   1.035  -0.327 -0.0503 -0.8288  0.1397
    3MOL     F4 4882   7.456   0.979  -0.449 -0.6225 -0.9090  0.3658
    3MOL     F5 4883   7.363   1.008  -0.254  0.0785  0.4817 -0.0524
    3MOL     F6 4884   7.574   0.967  -0.268 -0.2366  0.5731  0.4733
    3MOL     O2 4885   7.577   1.719  -0.210 -0.1854  0.2877 -0.1043
    3MOL    C25 4886   7.245   1.507  -0.671 -0.3977  0.6240  0.0874
    3MOL     N4 4887   7.113   1.558  -0.656  0.8549  0.4206 -0.4257
    3MOL    C26 4888   7.058   1.508  -0.536  0.0011  0.1311 -0.5643
    3MOL     O3 4889   6.948   1.543  -0.492  0.0257  0.1232  0.6648
    3MOL    C27 4890   7.934   2.235  -0.056 -0.7793  0.3424 -0.3832
    3MOL    C28 4891   8.061   2.182  -0.086  0.1054 -0.6558  0.5679
    3MOL    C29 4892   7.849   2.259  -0.161 -0.4218  0.2096  0.2356
    3MOL    C30 4893   8.101   2.149  -0.217 -0.7335  0.1454 -0.0392
    3MOL    C31 4894   7.897   2.239  -0.293 -0.8081  0.0059  0.0893
    3MOL    C32 4895   8.023   2.184  -0.320 -0.2410 -0.4746 -0.4543
    3MOL    C33 4896   8.087   2.188  -0.446  0.1497  0.3070  0.6101
    3MOL     N5 4897   8.140   2.308  -0.495 -0.1142  0.3136  0.5882
    3MOL     N6 4898   8.133   2.088  -0.537  0.1224  0.3002  0.6485
    3MOL    C34 4899   8.221   2.277  -0.605 -1.0409  0.2401 -0.3247
    3MOL    C35 4900   8.201   2.147  -0.641  0.0993 -0.5079 -0.4444
    3MOL    C36 4901   8.155   1.956  -0.479 -0.0545 -0.0751 -0.4528
    3MOL     H1 4902   8.252   1.960  -0.427  1.5724  0.7467  1.8950
    3MOL     H2 4903   8.144   1.880  -0.553  0.4517  0.4661  2.7945
    3MOL     H3 4904   8.071   1.933  -0.409  1.0094  3.2467  1.1450
    3MOL    C37 4905   8.110   2.437  -0.444 -0.3282  0.1314 -0.7446
    3MOL    C38 4906   8.124   2.467  -0.305  0.6740  0.6319  0.1506
    3MOL    C39 4907   8.071   2.584  -0.255  0.2227 -0.0226  0.6262
    3MOL    C40 4908   8.013   2.680  -0.339  0.4915  0.0776 -0.2080
    3MOL    C41 4909   8.015   2.663  -0.476  0.2237  0.3248  0.0095
    3MOL    C42 4910   8.062   2.540  -0.532  0.4036  0.2745 -0.7459
    3MOL    C43 4911   8.265   2.084  -0.764 -0.3234  0.3919 -0.5502
    3MOL     F7 4912   8.199   2.116  -0.882 -0.1832 -0.5037  0.1749
    3MOL     F8 4913   8.275   1.951  -0.758 -0.0486 -0.3587 -0.3581
    3MOL     F9 4914   8.385   2.140  -0.783 -0.6795  0.2503 -0.1637
    3MOL    C44 4915   7.776   2.212   0.276  0.1016 -0.6714  0.3244
    3MOL    C45 4916   7.878   2.289   0.305 -0.1377  0.1784  0.7241
    3MOL    C46 4917   7.912   2.339   0.449 -0.5381 -0.7672 -0.2414
    3MOL    F10 4918   8.045   2.378   0.473 -0.4195  0.2073 -0.2407
    3MOL    F11 4919   7.827   2.435   0.492  0.1518  0.0110  0.5610
    3MOL     H4 4920   7.684   2.178   0.332 -0.6110 -0.0760 -1.0868
    3MOL     H5 4921   7.895   1.991  -0.008  1.6181 -0.7186  3.4373
    3MOL     H6 4922   7.801   1.759  -0.042 -0.2214 -0.7159 -1.6247
    3MOL     H7 4923   7.509   2.102   0.172 -1.2265  2.0952 -0.9453
    3MOL     H8 4924   7.429   1.867   0.134 -0.7397 -2.1641 -0.0315
    3MOL     H9 4925   7.521   1.466  -0.337  0.0225  2.7957 -1.2117
    3MOL    H10 4926   7.534   1.118  -0.079  1.7140 -2.9911 -0.4183
    3MOL    H11 4927   7.587   1.275   0.114  1.5120  0.1404 -2.5159
    3MOL    H12 4928   7.261   1.209  -0.224 -0.5779 -3.3421  0.5874
    3MOL    H13 4929   7.446   1.334  -0.606 -1.9343 -1.6758 -3.0877
    3MOL    H14 4930   7.067   1.347  -0.294 -0.2952 -1.3732  2.5353
    3MOL     O4 4931   7.335   1.549  -0.746 -0.0939  0.1693  0.3501
    3MOL    H15 4932   8.109   2.142  -0.005 -0.7992  3.0685 -2.9613
    3MOL    H16 4933   8.196   2.099  -0.232  1.3350  0.1230 -1.0977
    3MOL    H17 4934   7.750   2.299  -0.146  2.5336  0.4188  0.8479
    3MOL    H18 4935   8.063   2.592  -0.142  0.6639 -2.5254 -0.9500
    3MOL    H19 4936   8.149   2.385  -0.234 -0.8646  1.2887  0.8406
    3MOL    H20 4937   7.961   2.726  -0.541 -1.2170 -1.9745  0.1618
    3MOL    H21 4938   8.040   2.518  -0.642 -0.7310  1.9321 -1.1591
    3MOL    H22 4939   8.282   2.354  -0.650  0.8648 -2.7565 -0.8103
    3MOL    H23 4940   7.824   2.275  -0.366 -0.7098 -1.1230  1.5286
    3MOL    F12 4941   7.893   2.242   0.542  0.0415  0.0485  0.2840
    3MOL    C47 4942   8.095   2.324   0.206  0.2304 -0.1578 -1.1272
    3MOL    H24 4943   8.130   2.242   0.270 -0.6536  1.2996 -2.2705
    3MOL    H25 4944   8.118   2.410   0.265 -0.5991  0.7947  1.1603
    3MOL    H26 4945   8.143   2.314   0.109  1.4822 -1.6509  1.6869
    3MOL     N1 4946   7.058   1.755  -0.307  0.1097 -0.1420  0.5632
    3MOL     N2 4947   6.863   1.692  -0.204 -0.0386  0.8693  0.1676
    3MOL     C1 4948   6.919   1.778  -0.305 -0.1057  0.8134  0.0822
    3MOL     C2 4949   6.741   1.702  -0.155  0.4044 -0.6876 -0.9163
    3MOL     C3 4950   6.656   1.593  -0.183  0.1117  0.7884  0.0293
    3MOL     C4 4951   6.523   1.595  -0.132  0.0100  0.5224 -0.2064
    3MOL     C5 4952   6.480   1.700  -0.050  0.0272 -0.0139  0.1083
    3MOL     C6 4953   6.568   1.806  -0.023  0.2453  0.4588 -0.1598
    3MOL     C7 4954   6.696   1.805  -0.070  0.3781 -0.1382  0.4006
    3MOL     N3 4955   6.342   1.723  -0.037  0.0087  0.0101 -0.4590
    3MOL     C8 4956   6.266   1.737  -0.155 -0.6378  0.3512  0.2369
    3MOL     C9 4957   6.149   1.804  -0.106 -0.5396 -0.0724  0.4296
    3MOL    C10 4958   6.153   1.822   0.030  0.4892 -0.2416 -0.3463
    3MOL    C11 4959   6.277   1.751   0.080  0.0071  0.2149 -0.1545
    3MOL     O1 4960   6.301   1.719   0.199 -0.5484 -0.6612  0.3206
    3MOL    C12 4961   6.054   1.864  -0.187 -0.1063 -0.1450 -0.1220
    3MOL    C13 4962   5.953   1.943  -0.126  0.6190 -0.3348  0.3763
    3MOL    C14 4963   5.950   1.961   0.014  0.2572  0.1884  0.0139
    3MOL    C15 4964   6.053   1.908   0.099  0.4099 -0.1951  0.5076
    3MOL    C16 4965   5.922   2.061  -0.334  0.0023 -1.0632  0.1138
    3MOL    C17 4966   6.041   2.135  -0.306  0.3296  0.1701 -0.3970
    3MOL    C18 4967   6.110   2.190  -0.413 -0.1794 -0.6678 -0.6497
    3MOL    C19 4968   5.879   2.039  -0.470  0.6499 -0.9998 -0.9081
    3MOL    C20 4969   6.067   2.164  -0.542 -0.4267 -0.3927 -0.4154
    3MOL    C21 4970   5.955   2.087  -0.574 -0.6839 -0.1703  0.3120
    3MOL    C22 4971   5.842   1.997  -0.214 -0.0259 -0.7125 -1.0353
    3MOL    C23 4972   5.747   1.882  -0.245  0.7755  0.0122  0.3417
    3MOL     F1 4973   5.819   1.794  -0.323 -0.2994 -0.0208  0.4440
    3MOL     F2 4974   5.637   1.910  -0.315 -0.1074 -0.5035 -0.3759
    3MOL     F3 4975   5.706   1.816  -0.136  0.0846 -0.6459 -0.2159
    3MOL    C24 4976   5.758   2.113  -0.145  0.0404 -0.1281 -0.0671
    3MOL     F4 4977   5.685   2.177  -0.238 -0.5501 -0.2154  0.0353
    3MOL     F5 4978   5.846   2.202  -0.085  0.1378 -0.1355 -0.0029
    3MOL     F6 4979   5.665   2.074  -0.048 -0.2915 -0.1149 -0.1526
    3MOL     O2 4980   6.292   1.713  -0.273  0.0231 -0.5834 -0.2149
    3MOL    C25 4981   6.246   2.253  -0.414 -0.3089  0.1585 -0.4639
    3MOL     N4 4982   6.261   2.282  -0.546  0.0445  0.1329 -0.1150
    3MOL    C26 4983   6.175   2.219  -0.631  0.7569  0.1240 -0.2393
    3MOL     O3 4984   6.199   2.194  -0.745  0.4136 -0.1806 -0.2662
    3MOL    C27 4985   6.840   1.834  -0.405  0.3773  0.7269  0.1475
    3MOL    C28 4986   6.750   1.749  -0.477  0.2016  0.4506 -0.6600
    3MOL    C29 4987   6.853   1.968  -0.436  0.4592  0.4616 -0.4172
    3MOL    C30 4988   6.688   1.796  -0.590 -0.5919  0.4033  0.3588
    3MOL    C31 4989   6.787   2.014  -0.552  0.6422  0.2275 -0.0416
    3MOL    C32 4990   6.702   1.933  -0.626  0.3094 -0.1229  0.4321
    3MOL    C33 4991   6.684   1.970  -0.760  0.1305 -0.4239  0.8249
    3MOL     N5 4992   6.781   1.955  -0.854 -0.3593  0.1924  0.4381
    3MOL     N6 4993   6.557   2.006  -0.829 -0.1180 -0.1441 -0.4504
    3MOL    C34 4994   6.722   1.987  -0.977  0.3842 -0.0326 -0.6790
    3MOL    C35 4995   6.593   2.015  -0.962 -0.2790  0.3201 -0.4084
    3MOL    C36 4996   6.428   1.980  -0.772  0.5533  0.2834 -0.7271
    3MOL     H1 4997   6.362   2.059  -0.817  0.7603 -1.4636 -1.8028
    3MOL     H2 4998   6.432   1.963  -0.660  0.1300  1.0761  0.4451
    3MOL     H3 4999   6.390   1.884  -0.811 -0.0208  3.0159 -1.5123
    3MOL    C37 5000   6.876   1.855  -0.832 -0.2306  0.1330 -0.4652
    3MOL    C38 5001   6.988   1.896  -0.751  0.1982  0.3769  0.3613
    3MOL    C39 5002   7.075   1.798  -0.703  0.1080  0.2305 -1.0182
    3MOL    C40 5003   7.049   1.661  -0.730  0.5148 -0.3473 -0.2281
    3MOL    C41 5004   6.943   1.624  -0.813  0.3519  0.0590  0.1194
    3MOL    C42 5005   6.853   1.721  -0.853  0.4901  0.4828  0.3018
    3MOL    C43 5006   6.490   2.037  -1.071 -0.2459  0.0712 -0.1045
    3MOL     F7 5007   6.382   2.100  -1.024 -0.1848 -0.1262 -0.3306
    3MOL     F8 5008   6.448   1.926  -1.135  0.0106 -0.2795 -0.4062
    3MOL     F9 5009   6.542   2.112  -1.168 -0.2410  0.4048  0.8785
    3MOL    C44 5010   6.977   1.622  -0.152  0.2714  0.2765 -0.1646
    3MOL    C45 5011   7.087   1.656  -0.215  0.4632  0.5873  0.3396
    3MOL    C46 5012   7.232   1.617  -0.185 -0.2522  0.4311 -0.2114
    3MOL    F10 5013   7.304   1.725  -0.152  0.0420 -0.0127  0.3250
    3MOL    F11 5014   7.244   1.524  -0.087 -0.2666  0.3941 -0.1543
    3MOL     H4 5015   6.969   1.550  -0.079 -1.7947 -0.5283 -0.0541
    3MOL     H5 5016   6.689   1.518  -0.254 -0.4221  2.8282  1.7383
    3MOL     H6 5017   6.449   1.523  -0.167 -0.4700  4.5370 -1.2586
    3MOL     H7 5018   6.762   1.891  -0.045  1.1478  1.8623  1.6213
    3MOL     H8 5019   6.533   1.897   0.037  0.3704  1.4425  0.8348
    3MOL     H9 5020   6.066   1.849  -0.289  1.3891 -1.8536  0.7739
    3MOL    H10 5021   5.870   2.020   0.063  0.4398  1.5063  1.7594
    3MOL    H11 5022   6.061   1.919   0.204  1.1158 -1.8682 -3.6619
    3MOL    H12 5023   5.797   1.971  -0.494 -0.4640 -1.2523 -0.5009
    3MOL    H13 5024   6.075   2.152  -0.201  0.3845  0.8796 -1.2473
    3MOL    H14 5025   5.933   2.065  -0.675  0.6511 -1.3536 -0.0574
    3MOL     O4 5026   6.321   2.284  -0.318 -0.1849 -0.1043  0.3840
    3MOL    H15 5027   6.748   1.644  -0.451  2.0283  1.2627  1.5646
    3MOL    H16 5028   6.633   1.736  -0.653 -0.9095  2.2240 -1.6276
    3MOL    H17 5029   6.924   2.033  -0.392 -1.8843 -1.7209  0.4519
    3MOL    H18 5030   7.161   1.832  -0.635  0.6254  3.1300 -0.0251
    3MOL    H19 5031   7.001   1.998  -0.720 -0.7043  1.5333  0.7279
    3MOL    H20 5032   6.931   1.517  -0.847 -0.6359 -0.6525 -0.0539
    3MOL    H21 5033   6.762   1.690  -0.908 -1.2350 -0.6302  0.2807
    3MOL    H22 5034   6.781   1.983  -1.063  1.6743 -2.8316 -0.4923
    3MOL    H23 5035   6.829   2.104  -0.590 -0.0475  1.4016 -0.4162
    3MOL    F12 5036   7.305   1.572  -0.292 -0.4927  0.1051 -0.1837
    3MOL    C47 5037   7.156   1.851  -0.362  1.0539 -0.0652  0.2717
    3MOL    H24 5038   7.230   1.793  -0.423  2.0642 -0.0487  0.5234
    3MOL    H25 5039   7.216   1.890  -0.279 -0.5898 -0.2822  0.1296
    3MOL    H26 5040   7.112   1.925  -0.422  0.5814 -0.7622 -2.2062
    3MOL     N1 5041   7.223   2.163  -0.564  0.3763 -0.4693  0.7924
    3MOL     N2 5042   7.245   2.097  -0.778 -0.8709 -0.0256 -0.4215
    3MOL     C1 5043   7.176   2.182  -0.696  0.3131 -0.8370  0.6733
    3MOL     C2 5044   7.287   2.131  -0.904 -0.7717 -0.3623  0.0309
    3MOL     C3 5045   7.207   2.165  -1.010 -0.0908  0.0988  0.0554
    3MOL     C4 5046   7.267   2.176  -1.141  0.4378  0.0965  0.2188
    3MOL     C5 5047   7.405   2.167  -1.160  0.4217 -0.6626  0.3723
    3MOL     C6 5048   7.490   2.152  -1.048 -0.3084  0.0757  0.0682
    3MOL     C7 5049   7.431   2.135  -0.920  0.3793 -0.2380  0.5072
    3MOL     N3 5050   7.457   2.145  -1.287  0.2472  0.0413 -0.0147
    3MOL     C8 5051   7.559   2.223  -1.332 -0.1365 -0.2855 -0.6674
    3MOL     C9 5052   7.618   2.149  -1.443  0.2341  0.2494 -0.1076
    3MOL    C10 5053   7.555   2.027  -1.451  0.1752 -0.3099 -0.6845
    3MOL    C11 5054   7.447   2.020  -1.348 -1.1479 -0.4436  0.7381
    3MOL     O1 5055   7.377   1.926  -1.325  0.2745 -0.3795  0.0661
    3MOL    C12 5056   7.728   2.169  -1.512  0.0817 -0.2334 -0.0661
    3MOL    C13 5057   7.782   2.065  -1.594 -0.0328  0.1252 -1.2724
    3MOL    C14 5058   7.717   1.940  -1.606  0.2269 -0.7748 -0.0874
    3MOL    C15 5059   7.600   1.922  -1.531 -0.0737  0.1282  0.4585
    3MOL    C16 5060   7.913   2.029  -1.807 -0.0360  0.2197 -0.2922
    3MOL    C17 5061   8.015   1.958  -1.864  0.6914  0.0597  0.6867
    3MOL    C18 5062   8.001   1.916  -1.998  0.8417 -0.3883 -0.2690
    3MOL    C19 5063   7.795   2.061  -1.881 -0.6646  0.2470 -0.6640
    3MOL    C20 5064   7.891   1.957  -2.073  0.3782 -0.0976  0.2005
    3MOL    C21 5065   7.786   2.029  -2.017 -0.5210 -0.7645 -0.0888
    3MOL    C22 5066   7.923   2.074  -1.660  0.3599  0.5016 -0.1378
    3MOL    C23 5067   7.979   2.227  -1.676 -0.5464  0.4785  0.0678
    3MOL     F1 5068   7.887   2.310  -1.728  0.3790  0.3663 -0.2179
    3MOL     F2 5069   8.079   2.224  -1.763 -0.1468  0.2737  0.2817
    3MOL     F3 5070   8.015   2.277  -1.555 -0.5477 -0.0376 -0.3228
    3MOL    C24 5071   8.016   1.982  -1.567 -0.0111  0.5647 -0.4309
    3MOL     F4 5072   8.011   2.025  -1.437 -0.1030 -0.0270  0.4918
    3MOL     F5 5073   8.150   1.984  -1.586  0.9192 -0.0037  0.1512
    3MOL     F6 5074   7.975   1.857  -1.572  0.6152  0.5312 -0.0075
    3MOL     O2 5075   7.602   2.327  -1.282  0.3481  0.0813 -0.6278
    3MOL    C25 5076   8.097   1.856  -2.095 -0.1640  0.0249  0.0136
    3MOL     N4 5077   8.033   1.864  -2.217  0.0211 -0.4141  0.0489
    3MOL    C26 5078   7.916   1.928  -2.215 -0.4851 -0.0039 -0.1028
    3MOL     O3 5079   7.841   1.949  -2.308 -0.0154  0.5592  1.0634
    3MOL    C27 5080   7.074   2.272  -0.732 -0.5531  0.1394 -0.6567
    3MOL    C28 5081   6.965   2.238  -0.818 -0.5281  0.1313  0.3961
    3MOL    C29 5082   7.085   2.407  -0.680  0.2663 -0.1863 -0.5111
    3MOL    C30 5083   6.871   2.333  -0.855 -0.3443 -0.2483 -0.0017
    3MOL    C31 5084   6.983   2.496  -0.713 -0.4113  0.6025 -0.0915
    3MOL    C32 5085   6.879   2.462  -0.799 -0.3862  0.7331  0.4280
    3MOL    C33 5086   6.790   2.564  -0.835  0.3983 -0.3917  0.3006
    3MOL     N5 5087   6.653   2.594  -0.790 -0.3857  0.0038 -0.0366
    3MOL     N6 5088   6.825   2.695  -0.880 -0.2354 -0.2866  0.6120
    3MOL    C34 5089   6.635   2.733  -0.780 -0.1406  0.9153  0.2543
    3MOL    C35 5090   6.735   2.792  -0.837 -0.6064  0.0658 -0.3842
    3MOL    C36 5091   6.966   2.734  -0.926  0.1764  0.1447  0.1355
    3MOL     H1 5092   6.954   2.795  -1.014 -0.4164 -0.2572 -1.9244
    3MOL     H2 5093   7.031   2.646  -0.937  3.2942 -1.6467 -0.6153
    3MOL     H3 5094   7.010   2.802  -0.853 -0.3863 -0.1913 -1.4462
    3MOL    C37 5095   6.562   2.503  -0.728 -0.6731 -0.0946 -0.4285
    3MOL    C38 5096   6.603   2.402  -0.635 -0.9552  0.5260  0.3817
    3MOL    C39 5097   6.506   2.324  -0.565  0.4656 -0.1947  0.3064
    3MOL    C40 5098   6.372   2.347  -0.598 -0.4879 -0.5373 -0.8428
    3MOL    C41 5099   6.335   2.453  -0.683  0.4105  0.0371  0.5059
    3MOL    C42 5100   6.427   2.528  -0.751  0.0740  0.0554 -0.4531
    3MOL    C43 5101   6.766   2.937  -0.853 -0.3026 -0.0577 -0.6349
    3MOL     F7 5102   6.822   2.967  -0.974  0.2810 -0.4190 -0.3119
    3MOL     F8 5103   6.864   2.966  -0.765  0.0003 -0.2578  0.6617
    3MOL     F9 5104   6.654   3.004  -0.830  0.3147 -0.2797  0.4158
    3MOL    C44 5105   7.320   2.014  -0.691 -0.0414  0.3099  0.3515
    3MOL    C45 5106   7.310   2.050  -0.568 -0.1345 -0.2386 -0.0059
    3MOL    C46 5107   7.409   2.034  -0.454 -0.3685  0.3177 -0.1145
    3MOL    F10 5108   7.360   2.053  -0.327 -0.2245  0.4377 -0.2538
    3MOL    F11 5109   7.472   1.915  -0.446  0.4355 -0.1109  0.2153
    3MOL     H4 5110   7.397   1.948  -0.735  0.0731  0.8544  0.0283
    3MOL     H5 5111   7.103   2.177  -0.997 -4.6693  2.5956  0.8170
    3MOL     H6 5112   7.213   2.189  -1.229  0.0762  1.5712  1.2405
    3MOL     H7 5113   7.499   2.107  -0.840 -1.3250  0.3768 -1.3872
    3MOL     H8 5114   7.597   2.136  -1.066  0.6229 -2.0607  0.4967
    3MOL     H9 5115   7.782   2.265  -1.485 -0.4985  1.5816 -2.9641
    3MOL    H10 5116   7.751   1.859  -1.659 -2.1489  1.4001  1.0363
    3MOL    H11 5117   7.550   1.829  -1.530 -0.8517  2.1504  2.3876
    3MOL    H12 5118   7.707   2.114  -1.834 -1.8396 -0.0763 -1.9770
    3MOL    H13 5119   8.101   1.941  -1.806  0.9176  0.8402  1.7928
    3MOL    H14 5120   7.691   2.046  -2.071 -0.2921 -1.2590  0.8507
    3MOL     O4 5121   8.217   1.838  -2.077 -0.9152 -0.0152  0.0660
    3MOL    H15 5122   6.965   2.131  -0.860 -2.0959  0.4641  2.1222
    3MOL    H16 5123   6.792   2.312  -0.934  0.0526 -0.3648 -0.6734
    3MOL    H17 5124   7.171   2.431  -0.619  0.1938 -0.9779 -0.5986
    3MOL    H18 5125   6.531   2.247  -0.496 -1.2355 -1.8180 -3.6418
    3MOL    H19 5126   6.712   2.385  -0.613  2.6500 -1.3452 -0.2720
    3MOL    H20 5127   6.226   2.484  -0.687 -0.2218 -1.1922  1.0448
    3MOL    H21 5128   6.394   2.610  -0.815 -1.5784  1.4786  0.3292
    3MOL    H22 5129   6.552   2.775  -0.730  3.1342 -0.2380  1.0101
    3MOL    H23 5130   6.987   2.591  -0.667  2.1165 -2.0147 -0.7201
    3MOL    F12 5131   7.512   2.124  -0.473  0.2058  0.5796  0.0295
    3MOL    C47 5132   7.155   2.211  -0.450 -0.3524 -0.0705  0.3355
    3MOL    H24 5133   7.227   2.273  -0.398  1.8888 -1.3320  0.7797
    3MOL    H25 5134   7.117   2.132  -0.383 -0.1107  0.5004  2.2762
    3MOL    H26 5135   7.067   2.272  -0.474 -0.6717  0.7003  0.3270
    3MOL     N1 5136   7.550   1.782  -2.472  0.2297  0.3742  0.0724
    3MOL     N2 5137   7.506   1.989  -2.418 -0.3057  0.5127 -0.1285
    3MOL     C1 5138   7.601   1.911  -2.483  0.7040  0.4718 -0.4717
    3MOL     C2 5139   7.520   2.097  -2.332  0.6204  0.6705  0.0380
    3MOL     C3 5140   7.599   2.205  -2.366 -0.4402 -0.4060  0.8882
    3MOL     C4 5141   7.594   2.325  -2.286  0.6910 -0.4512  0.4453
    3MOL     C5 5142   7.514   2.325  -2.170  0.0558 -0.3756 -0.0019
    3MOL     C6 5143   7.456   2.203  -2.125  0.3229 -0.0857 -0.4491
    3MOL     C7 5144   7.457   2.093  -2.204  0.4871 -0.1304 -0.1725
    3MOL     N3 5145   7.486   2.450  -2.109  0.3219 -0.3320 -0.0596
    3MOL     C8 5146   7.538   2.491  -1.990 -0.7536  0.4993  0.4311
    3MOL     C9 5147   7.482   2.625  -1.964 -0.6416 -0.4401  0.3519
    3MOL    C10 5148   7.406   2.658  -2.078 -0.0027  1.0760 -0.3381
    3MOL    C11 5149   7.405   2.542  -2.171  0.5855 -0.5297 -0.2023
    3MOL     O1 5150   7.344   2.537  -2.274  0.3258  0.3457 -0.4603
    3MOL    C12 5151   7.512   2.714  -1.861 -0.2557  0.3769 -0.0935
    3MOL    C13 5152   7.451   2.841  -1.857  0.5849  0.1881  0.2112
    3MOL    C14 5153   7.366   2.867  -1.967  0.0358 -0.2905  0.4443
    3MOL    C15 5154   7.336   2.783  -2.078 -0.7565  0.1845  0.4425
    3MOL    C16 5155   7.329   3.001  -1.704 -0.1348  0.1761 -0.4280
    3MOL    C17 5156   7.305   3.137  -1.666 -0.0567 -0.2649 -0.5975
    3MOL    C18 5157   7.173   3.178  -1.636 -0.0371  0.0363 -0.9121
    3MOL    C19 5158   7.217   2.910  -1.703  0.0282 -0.2162  0.1283
    3MOL    C20 5159   7.065   3.088  -1.638  0.1817  0.1450  0.5243
    3MOL    C21 5160   7.085   2.955  -1.672  0.2506 -0.0116 -0.3723
    3MOL    C22 5161   7.469   2.950  -1.747  0.1519 -0.6899  0.1503
    3MOL    C23 5162   7.542   2.901  -1.618  0.2751 -0.0024  0.2780
    3MOL     F1 5163   7.480   2.794  -1.569 -0.0689 -0.0541 -0.1056
    3MOL     F2 5164   7.529   2.993  -1.519  0.6412 -0.3140 -0.0971
    3MOL     F3 5165   7.675   2.888  -1.636 -0.2545  0.5257  0.2287
    3MOL    C24 5166   7.562   3.056  -1.816  0.6989 -0.2096  0.7500
    3MOL     F4 5167   7.620   3.135  -1.718 -0.2353 -0.2781 -0.2669
    3MOL     F5 5168   7.489   3.140  -1.891 -0.7461 -0.1453  0.3369
    3MOL     F6 5169   7.647   3.007  -1.910  0.3443  0.4880  0.7244
    3MOL     O2 5170   7.623   2.429  -1.928 -0.0676  0.2231 -0.6219
    3MOL    C25 5171   7.115   3.312  -1.592 -0.1403 -0.0568 -0.4317
    3MOL     N4 5172   6.982   3.297  -1.569 -0.2224  0.9579 -0.4021
    3MOL    C26 5173   6.940   3.164  -1.598  0.5211 -0.1987 -0.4298
    3MOL     O3 5174   6.824   3.130  -1.593  0.3163  0.5168  0.7374
    3MOL    C27 5175   7.708   1.939  -2.572 -0.4487  0.8424  0.3316
    3MOL    C28 5176   7.804   2.039  -2.552  0.0870  0.6428  0.3855
    3MOL    C29 5177   7.705   1.877  -2.698  0.3644  0.2120  0.2507
    3MOL    C30 5178   7.922   2.036  -2.630 -0.1053 -0.1594  0.1428
    3MOL    C31 5179   7.812   1.892  -2.785 -0.3868  0.0426  0.3460
    3MOL    C32 5180   7.924   1.966  -2.754 -0.8123 -1.2336 -0.3248
    3MOL    C33 5181   8.040   1.942  -2.816 -0.2127 -0.2829  0.3995
    3MOL     N5 5182   8.152   1.879  -2.752 -0.0070  0.2016  0.9879
    3MOL     N6 5183   8.083   1.986  -2.943 -0.1417 -0.5551  0.1080
    3MOL    C34 5184   8.258   1.900  -2.842 -0.1317  0.3909 -0.1816
    3MOL    C35 5185   8.216   1.963  -2.950  0.4568 -0.1253 -0.2849
    3MOL    C36 5186   7.994   2.002  -3.064 -0.7747  1.0575 -1.0431
    3MOL     H1 5187   8.033   1.930  -3.137  1.3630 -0.8182  0.3047
    3MOL     H2 5188   8.000   2.105  -3.098  4.0205  0.8236 -0.0106
    3MOL     H3 5189   7.892   1.976  -3.032 -0.2774 -3.2261 -0.0030
    3MOL    C37 5190   8.159   1.854  -2.612  1.3606  0.4831  0.1779
    3MOL    C38 5191   8.203   1.959  -2.529 -0.0109 -0.0805 -0.6851
    3MOL    C39 5192   8.169   1.946  -2.390  1.0892  0.0809 -0.5506
    3MOL    C40 5193   8.095   1.837  -2.341 -0.0735 -0.0815 -0.0377
    3MOL    C41 5194   8.061   1.729  -2.427  0.0140  1.0759 -0.4541
    3MOL    C42 5195   8.100   1.738  -2.555  0.0683  0.4380  0.4634
    3MOL    C43 5196   8.296   2.014  -3.069  0.5965 -0.3648 -0.7464
    3MOL     F7 5197   8.258   1.950  -3.179  0.1323  0.1632 -0.1135
    3MOL     F8 5198   8.427   1.985  -3.057 -0.7185  0.4207 -0.4013
    3MOL     F9 5199   8.283   2.143  -3.087  0.2247 -0.1442 -0.6046
    3MOL    C44 5200   7.389   1.912  -2.407  0.5363  0.1948 -0.0700
    3MOL    C45 5201   7.414   1.786  -2.428  0.0735 -0.3417  0.5778
    3MOL    C46 5202   7.310   1.673  -2.443 -0.4759 -0.0026 -0.7825
    3MOL    F10 5203   7.364   1.550  -2.428  0.3265  0.1476 -0.1663
    3MOL    F11 5204   7.225   1.687  -2.341 -0.2675  0.4377 -0.2017
    3MOL     H4 5205   7.302   1.957  -2.370 -0.6826  0.9218 -0.3056
    3MOL     H5 5206   7.642   2.204  -2.466 -2.5892  2.8641 -2.7318
    3MOL     H6 5207   7.644   2.422  -2.322  0.5791 -0.8519 -3.0752
    3MOL     H7 5208   7.397   2.016  -2.163  0.8384 -0.5984  2.1908
    3MOL     H8 5209   7.389   2.200  -2.037  1.7179 -1.9165  1.0868
    3MOL     H9 5210   7.589   2.686  -1.791  0.5695 -3.2990  1.0879
    3MOL    H10 5211   7.323   2.965  -1.972 -0.0485 -1.0239 -1.7391
    3MOL    H11 5212   7.278   2.819  -2.165  1.7843 -0.5210 -0.1364
    3MOL    H12 5213   7.239   2.805  -1.726  1.2086  2.3086  0.6850
    3MOL    H13 5214   7.381   3.211  -1.669 -0.3379  1.4805 -1.9571
    3MOL    H14 5215   6.999   2.891  -1.666  1.6494  0.8058  1.8351
    3MOL     O4 5216   7.178   3.413  -1.565 -0.0210 -0.0708 -0.2429
    3MOL    H15 5217   7.805   2.090  -2.459  0.4825  1.2507  3.2019
    3MOL    H16 5218   8.008   2.087  -2.592  0.3208  0.5105 -1.5013
    3MOL    H17 5219   7.616   1.815  -2.722  0.6599 -2.0108  1.6062
    3MOL    H18 5220   8.184   2.038  -2.332 -0.2575  1.0781  0.5407
    3MOL    H19 5221   8.252   2.049  -2.564 -0.3370  1.7698  1.0528
    3MOL    H20 5222   8.007   1.641  -2.389 -2.3547  0.5294 -0.7783
    3MOL    H21 5223   8.083   1.644  -2.613 -4.6698 -0.2409  0.0393
    3MOL    H22 5224   8.356   1.857  -2.819 -0.3543 -0.9644 -1.3156
    3MOL    H23 5225   7.799   1.836  -2.875  1.6060  2.1464 -0.0326
    3MOL    F12 5226   7.243   1.674  -2.558 -0.2275 -0.1143 -0.0517
    3MOL    C47 5227   7.639   1.662  -2.467 -0.1779  0.0867 -0.3666
    3MOL    H24 5228   7.578   1.576  -2.473  2.2336  1.8224 -0.4544
    3MOL    H25 5229   7.678   1.656  -2.363  0.2982  0.0084 -1.2127
    3MOL    H26 5230   7.726   1.664  -2.541  1.9534 -0.3702 -3.2225
    3MOL     N1 5231   6.757   3.070  -1.307  0.1376 -0.9497 -0.3573
    3MOL     N2 5232   6.554   2.958  -1.291 -0.2993 -0.1625 -0.0587
    3MOL     C1 5233   6.613   3.081  -1.327 -0.3762 -0.1362  0.3337
    3MOL     C2 5234   6.422   2.926  -1.324  0.0509 -0.3296 -0.3567
    3MOL     C3 5235   6.376   2.961  -1.448  0.2199 -0.2051  0.9150
    3MOL     C4 5236   6.251   2.902  -1.494  0.2860  0.0468 -0.2829
    3MOL     C5 5237   6.181   2.817  -1.406 -0.4708  0.0390 -0.0887
    3MOL     C6 5238   6.230   2.791  -1.277  0.3045  0.7195 -0.3725
    3MOL     C7 5239   6.350   2.843  -1.239 -0.2724  0.0269  0.0173
    3MOL     N3 5240   6.078   2.726  -1.456  0.0494  0.7019 -0.5937
    3MOL     C8 5241   6.099   2.588  -1.448  0.7289  0.0669  0.0208
    3MOL     C9 5242   5.977   2.535  -1.505  0.3554 -0.7520 -0.7318
    3MOL    C10 5243   5.899   2.641  -1.556  0.6555  0.7148  0.3416
    3MOL    C11 5244   5.964   2.766  -1.519  0.3936 -0.0759  1.1605
    3MOL     O1 5245   5.922   2.878  -1.541  0.1068  0.4063 -1.0989
    3MOL    C12 5246   5.940   2.403  -1.536 -0.1016  0.1339 -0.1710
    3MOL    C13 5247   5.824   2.379  -1.612  0.3590  0.0206  0.1961
    3MOL    C14 5248   5.748   2.485  -1.657  0.0320  0.6132 -0.9210
    3MOL    C15 5249   5.785   2.619  -1.637  0.4257  0.1811 -0.0727
    3MOL    C16 5250   5.914   2.161  -1.719 -0.4582 -0.5718 -1.2871
    3MOL    C17 5251   5.973   2.246  -1.819 -0.2799 -0.1000 -0.7511
    3MOL    C18 5252   6.083   2.198  -1.888 -0.0361  0.0308 -0.3421
    3MOL    C19 5253   5.970   2.032  -1.697 -0.3892  0.3534 -0.1320
    3MOL    C20 5254   6.144   2.077  -1.856  0.8766  0.3700 -0.8163
    3MOL    C21 5255   6.087   1.994  -1.766 -0.1363  0.1932 -0.4465
    3MOL    C22 5256   5.792   2.229  -1.648 -0.0842  0.1708  0.2302
    3MOL    C23 5257   5.757   2.158  -1.511  0.4959 -0.5386  1.0195
    3MOL     F1 5258   5.859   2.136  -1.427  0.5861  0.1534 -0.0528
    3MOL     F2 5259   5.686   2.042  -1.514  0.3036  0.3146  0.2521
    3MOL     F3 5260   5.666   2.238  -1.446  0.0716  0.0410  0.1782
    3MOL    C24 5261   5.668   2.217  -1.753 -0.0344 -0.0116 -0.1448
    3MOL     F4 5262   5.675   2.095  -1.797  0.5182  0.2210 -0.3323
    3MOL     F5 5263   5.680   2.299  -1.856 -0.1614 -0.5545  0.0804
    3MOL     F6 5264   5.547   2.240  -1.696 -0.0742  0.0021 -0.1889
    3MOL     O2 5265   6.191   2.526  -1.397  0.4575  0.3896 -0.4457
    3MOL    C25 5266   6.168   2.266  -1.993  0.3388  0.1942 -0.0009
    3MOL     N4 5267   6.283   2.188  -2.004  0.1814  0.4125  0.1579
    3MOL    C26 5268   6.270   2.071  -1.927  0.3865 -0.3046  0.3522
    3MOL     O3 5269   6.348   1.980  -1.932 -0.0402  0.1399 -0.7802
    3MOL    C27 5270   6.550   3.201  -1.353  0.4681  0.7032  0.0387
    3MOL    C28 5271   6.566   3.253  -1.474 -0.2514 -0.0241  0.5203
    3MOL    C29 5272   6.494   3.272  -1.250  0.4702  0.0561 -0.4880
    3MOL    C30 5273   6.511   3.380  -1.499 -0.4190 -0.0860 -0.1037
    3MOL    C31 5274   6.445   3.402  -1.277 -0.0186  0.4339 -0.8094
    3MOL    C32 5275   6.461   3.462  -1.403 -1.1291 -0.2220 -0.6128
    3MOL    C33 5276   6.467   3.596  -1.427  0.6240 -0.6797 -0.1414
    3MOL     N5 5277   6.572   3.664  -1.492  0.0101  0.2221  0.3317
    3MOL     N6 5278   6.366   3.688  -1.404  0.0392  0.1230 -0.2742
    3MOL    C34 5279   6.535   3.802  -1.487 -0.0623  1.2424  0.0081
    3MOL    C35 5280   6.415   3.816  -1.437  0.3128  0.6765 -0.2903
    3MOL    C36 5281   6.223   3.652  -1.409 -0.5097  0.0772  0.2057
    3MOL     H1 5282   6.161   3.744  -1.422 -2.0154  0.3788  4.1752
    3MOL     H2 5283   6.196   3.632  -1.310  0.9456  1.3074  1.0444
    3MOL     H3 5284   6.207   3.568  -1.481 -0.2264  0.3181 -1.0827
    3MOL    C37 5285   6.698   3.597  -1.511  0.2236 -0.0044 -0.0236
    3MOL    C38 5286   6.770   3.549  -1.404  0.0353  0.0044  0.2129
    3MOL    C39 5287   6.870   3.451  -1.418  0.1011 -0.6029 -0.0449
    3MOL    C40 5288   6.901   3.406  -1.553  0.2651  0.2559 -0.2457
    3MOL    C41 5289   6.835   3.464  -1.667  0.1798 -0.2851 -0.5374
    3MOL    C42 5290   6.728   3.554  -1.640  0.6170 -0.3104 -0.8963
    3MOL    C43 5291   6.353   3.949  -1.423 -0.1484 -0.0741 -0.0307
    3MOL     F7 5292   6.222   3.945  -1.408 -0.7973  0.1699 -0.1277
    3MOL     F8 5293   6.398   4.022  -1.526  0.0544  0.3646  0.2809
    3MOL     F9 5294   6.417   4.000  -1.318  0.0721 -0.0645 -0.3220
    3MOL    C44 5295   6.663   2.867  -1.286  0.4212 -0.4565 -0.2769
    3MOL    C45 5296   6.780   2.929  -1.288  0.1770 -0.5514  0.0736
    3MOL    C46 5297   6.909   2.856  -1.288 -0.1843  0.5359 -0.7432
    3MOL    F10 5298   6.895   2.738  -1.235  0.2980  0.1869  0.1447
    3MOL    F11 5299   6.953   2.827  -1.420 -0.6042  0.1237  0.1270
    3MOL     H4 5300   6.642   2.762  -1.281 -0.9354  1.0763 -0.2813
    3MOL     H5 5301   6.434   3.025  -1.505  2.2511  3.8738  3.2427
    3MOL     H6 5302   6.201   2.930  -1.583  1.9096  2.7361 -4.5229
    3MOL     H7 5303   6.381   2.825  -1.138 -0.2927  0.1600  0.3295
    3MOL     H8 5304   6.180   2.714  -1.214 -1.7118 -1.1387 -0.1007
    3MOL     H9 5305   6.004   2.321  -1.504 -0.8704 -0.0420 -1.1285
    3MOL    H10 5306   5.647   2.473  -1.706 -1.2626 -1.0197 -0.8440
    3MOL    H11 5307   5.718   2.698  -1.662  1.3381  0.8272  1.4116
    3MOL    H12 5308   5.930   1.965  -1.625  2.1288 -1.7745  0.9907
    3MOL    H13 5309   5.924   2.341  -1.845  1.0126  0.1347  0.0039
    3MOL    H14 5310   6.132   1.898  -1.740  0.7691  0.3892  1.8022
    3MOL     O4 5311   6.144   2.373  -2.050  0.3000  0.2313 -0.2531
    3MOL    H15 5312   6.619   3.193  -1.546  3.0957  0.4960  1.5055
    3MOL    H16 5313   6.514   3.410  -1.605  0.7441 -1.0371  0.0229
    3MOL    H17 5314   6.499   3.234  -1.152  1.6133 -0.0227 -1.7711
    3MOL    H18 5315   6.918   3.406  -1.332 -0.8295 -2.8839 -2.3358
    3MOL    H19 5316   6.750   3.593  -1.306  0.2690 -0.6036 -0.1706
    3MOL    H20 5317   6.844   3.417  -1.770 -0.9739 -0.9124 -0.2104
    3MOL    H21 5318   6.661   3.580  -1.718  0.5799 -1.0053  0.2612
    3MOL    H22 5319   6.609   3.872  -1.520  0.8760  0.7905 -0.2865
    3MOL    H23 5320   6.409   3.468  -1.195 -0.3926  0.2843 -0.5705
    3MOL    F12 5321   7.007   2.926  -1.220  0.2889 -0.1649 -0.4089
    3MOL    C47 5322   6.825   3.170  -1.220  0.4054 -0.4007 -0.7224
    3MOL    H24 5323   6.924   3.193  -1.259 -2.8832 -0.1693 -0.6053
    3MOL    H25 5324   6.842   3.122  -1.121  0.5062  3.4008  1.3110
    3MOL    H26 5325   6.754   3.259  -1.209 -0.2998 -0.0427  0.8104
    3MOL     N1 5326   6.488   2.130  -1.689  0.2489 -0.1520 -0.6987
    3MOL     N2 5327   6.532   1.912  -1.618 -0.2580 -0.3480 -0.6382
    3MOL     C1 5328   6.570   2.015  -1.713 -0.7822 -0.0648 -0.3116
    3MOL     C2 5329   6.610   1.805  -1.573 -0.1775 -0.0837  0.3924
    3MOL     C3 5330   6.692   1.739  -1.662  0.4829 -0.3788 -0.5756
    3MOL     C4 5331   6.772   1.632  -1.616 -0.5326  0.0504 -0.0256
    3MOL     C5 5332   6.777   1.598  -1.488 -0.8738 -0.4793 -0.5288
    3MOL     C6 5333   6.689   1.660  -1.395  0.1476  0.3088 -0.7577
    3MOL     C7 5334   6.603   1.761  -1.444  0.1035 -0.0570  0.5871
    3MOL     N3 5335   6.881   1.509  -1.441 -0.2652  0.0509  0.1170
    3MOL     C8 5336   6.866   1.417  -1.336  0.9174 -0.3776 -0.8799
    3MOL     C9 5337   7.004   1.369  -1.312  0.1997  0.0926 -0.1689
    3MOL    C10 5338   7.091   1.417  -1.408  0.6715 -0.2810 -0.1751
    3MOL    C11 5339   7.016   1.527  -1.475  0.3736  0.1142  0.8382
    3MOL     O1 5340   7.071   1.615  -1.548 -0.1011 -0.1007  0.0893
    3MOL    C12 5341   7.054   1.283  -1.212 -0.5789 -0.6207 -0.7679
    3MOL    C13 5342   7.190   1.244  -1.214 -0.1389  0.2898 -0.1862
    3MOL    C14 5343   7.276   1.297  -1.311 -0.0493  0.0458  0.0645
    3MOL    C15 5344   7.231   1.392  -1.403  0.1521  0.3250  0.5278
    3MOL    C16 5345   7.171   1.040  -1.052  0.3694  0.4109  0.1411
    3MOL    C17 5346   7.187   0.968  -0.930 -0.1028 -0.7157 -0.2101
    3MOL    C18 5347   7.106   0.862  -0.896  0.9386  0.4928 -0.0946
    3MOL    C19 5348   7.079   0.988  -1.146 -0.3519 -0.4035  0.8180
    3MOL    C20 5349   7.008   0.821  -0.980  0.4612 -0.6578 -0.1125
    3MOL    C21 5350   6.996   0.879  -1.109 -0.2354  0.0293 -0.9217
    3MOL    C22 5351   7.251   1.167  -1.090  0.6236 -0.4009 -0.3308
    3MOL    C23 5352   7.401   1.123  -1.115  0.4764 -0.2692 -0.2739
    3MOL     F1 5353   7.447   1.045  -1.013  0.4779  0.3460 -0.0493
    3MOL     F2 5354   7.496   1.217  -1.110  0.0633 -0.0124  0.6617
    3MOL     F3 5355   7.415   1.057  -1.228 -0.0718 -0.2210  0.0618
    3MOL    C24 5356   7.252   1.265  -0.964  0.2453 -0.4852 -0.6476
    3MOL     F4 5357   7.296   1.394  -0.999  0.4442 -0.1071 -0.1704
    3MOL     F5 5358   7.343   1.230  -0.865 -0.5855  0.6893  0.0836
    3MOL     F6 5359   7.130   1.278  -0.905 -0.1560  0.7663  0.3980
    3MOL     O2 5360   6.758   1.383  -1.282  0.5228  0.3919 -0.7564
    3MOL    C25 5361   7.095   0.786  -0.772  1.0764 -0.3923 -0.2339
    3MOL     N4 5362   6.983   0.701  -0.787 -0.9365 -0.1288 -0.0970
    3MOL    C26 5363   6.925   0.716  -0.914  0.7960 -0.6895 -0.7000
    3MOL     O3 5364   6.823   0.661  -0.948 -0.0216  0.0638  0.2215
    3MOL    C27 5365   6.665   1.999  -1.814  0.7279  0.3336 -0.0624
    3MOL    C28 5366   6.631   1.934  -1.929  0.4742  0.3337  0.6872
    3MOL    C29 5367   6.788   2.067  -1.811  0.0663 -0.0330  0.0872
    3MOL    C30 5368   6.712   1.948  -2.046 -0.5059 -0.0363  0.2977
    3MOL    C31 5369   6.870   2.075  -1.925 -0.2144 -0.1531 -0.0851
    3MOL    C32 5370   6.831   2.026  -2.047 -0.2492  0.4994 -0.2196
    3MOL    C33 5371   6.864   2.084  -2.166  0.1786 -0.1676 -0.6612
    3MOL     N5 5372   6.780   2.174  -2.244  1.3456  0.2879  0.0067
    3MOL     N6 5373   6.995   2.102  -2.212  0.4902 -0.3458  0.2211
    3MOL    C34 5374   6.872   2.246  -2.323 -0.6623 -0.5314  0.3415
    3MOL    C35 5375   6.993   2.201  -2.313  1.0674  0.1627  0.0964
    3MOL    C36 5376   7.116   2.023  -2.169  0.0608  0.9219 -0.3989
    3MOL     H1 5377   7.202   2.087  -2.187 -0.5487  0.9377 -1.3856
    3MOL     H2 5378   7.132   1.938  -2.239 -0.1116  0.7518 -0.6835
    3MOL     H3 5379   7.088   1.980  -2.066  0.7139 -0.4252 -1.4896
    3MOL    C37 5380   6.646   2.213  -2.205 -0.3292 -0.5346  0.6977
    3MOL    C38 5381   6.531   2.161  -2.269  0.1875 -0.4046  0.1057
    3MOL    C39 5382   6.410   2.158  -2.206  0.0296 -0.4356 -0.0698
    3MOL    C40 5383   6.395   2.218  -2.083  0.0852 -0.2092  0.2333
    3MOL    C41 5384   6.503   2.287  -2.025 -0.4666  0.4885  0.4656
    3MOL    C42 5385   6.630   2.279  -2.080 -0.0114  0.1281 -0.8983
    3MOL    C43 5386   7.109   2.259  -2.382 -0.1898  0.0331 -0.1249
    3MOL     F7 5387   7.204   2.167  -2.389 -0.0765  0.0915  0.1646
    3MOL     F8 5388   7.146   2.365  -2.317 -0.1458 -0.4380 -0.5520
    3MOL     F9 5389   7.072   2.308  -2.501  0.4431 -0.5445 -0.0642
    3MOL    C44 5390   6.422   1.970  -1.546 -0.0734  0.5375 -0.3680
    3MOL    C45 5391   6.392   2.092  -1.589 -0.0619  0.5347  0.7447
    3MOL    C46 5392   6.284   2.184  -1.533 -0.2470  0.0251 -0.4985
    3MOL    F10 5393   6.257   2.290  -1.610 -0.2971 -1.2354 -0.3211
    3MOL    F11 5394   6.165   2.117  -1.505 -0.0830  0.3596 -0.4543
    3MOL     H4 5395   6.373   1.927  -1.461 -0.6676  2.2959 -0.3734
    3MOL     H5 5396   6.695   1.781  -1.754 -3.4218  0.2402  3.7678
    3MOL     H6 5397   6.835   1.582  -1.687 -0.7297  0.8016 -0.7345
    3MOL     H7 5398   6.538   1.813  -1.376  0.4364  3.2829 -0.5893
    3MOL     H8 5399   6.689   1.631  -1.290 -0.9454  1.4663  1.6797
    3MOL     H9 5400   6.991   1.252  -1.134 -3.8213  0.2578 -0.2028
    3MOL    H10 5401   7.385   1.294  -1.305  0.2941 -3.0865  0.2616
    3MOL    H11 5402   7.295   1.447  -1.465 -0.7411  0.2178 -0.7144
    3MOL    H12 5403   7.090   1.033  -1.244 -0.6800  1.0078 -1.9869
    3MOL    H13 5404   7.266   1.002  -0.861  1.4187 -0.5570 -0.5371
    3MOL    H14 5405   6.908   0.869  -1.175 -5.8959  0.6546 -2.5360
    3MOL     O4 5406   7.166   0.795  -0.672  0.1900 -0.1244 -0.2800
    3MOL    H15 5407   6.535   1.874  -1.926 -0.1921 -1.3475 -0.0788
    3MOL    H16 5408   6.674   1.910  -2.141  2.7684 -0.2259  0.0592
    3MOL    H17 5409   6.826   2.122  -1.723  0.8967 -0.6925  0.3646
    3MOL    H18 5410   6.335   2.110  -2.267 -0.7038 -0.1167  2.2002
    3MOL    H19 5411   6.539   2.119  -2.369  1.6382  0.5594 -0.1706
    3MOL    H20 5412   6.493   2.332  -1.925 -0.1440  2.5803 -1.4655
    3MOL    H21 5413   6.717   2.309  -2.026 -2.7998 -0.6115 -1.5857
    3MOL    H22 5414   6.847   2.337  -2.383 -2.2975  0.7495 -1.2587
    3MOL    H23 5415   6.961   2.141  -1.920  1.1153 -1.2028 -2.1852
    3MOL    F12 5416   6.333   2.236  -1.410 -0.6679 -0.0828 -0.0451
    3MOL    C47 5417   6.544   2.260  -1.674 -0.6195  0.6003 -0.6024
    3MOL    H24 5418   6.581   2.272  -1.567  0.4528  0.8346  1.6873
    3MOL    H25 5419   6.465   2.328  -1.698  0.6294 -0.3285 -0.6177
    3MOL    H26 5420   6.630   2.269  -1.746 -2.5631 -0.4847 -2.4345
    3MOL     N1 5421   7.069   0.898  -0.003 -0.0610 -0.4921  0.1929
    3MOL     N2 5422   7.170   0.754   0.136  0.7275  0.6392 -0.5524
    3MOL     C1 5423   7.084   0.762   0.022  0.7529 -0.7710 -0.3580
    3MOL     C2 5424   7.204   0.637   0.201  0.4230  0.6619 -1.1432
    3MOL     C3 5425   7.102   0.565   0.267  0.1088 -0.8297  0.0835
    3MOL     C4 5426   7.141   0.449   0.338 -0.5766  0.0874  0.5164
    3MOL     C5 5427   7.282   0.422   0.350  0.2480  0.1928  0.4269
    3MOL     C6 5428   7.382   0.505   0.292  0.4405  0.3059  0.7438
    3MOL     C7 5429   7.343   0.610   0.209  0.8239  0.5076  0.0712
    3MOL     N3 5430   7.322   0.300   0.399  0.1078 -0.5873  0.0523
    3MOL     C8 5431   7.370   0.201   0.317 -0.1562 -0.2621 -0.1978
    3MOL     C9 5432   7.370   0.076   0.391 -0.3577  1.2658 -0.0532
    3MOL    C10 5433   7.334   0.101   0.523 -0.9558  0.9993 -0.0329
    3MOL    C11 5434   7.298   0.246   0.527  0.2162 -0.4985  0.7796
    3MOL     O1 5435   7.252   0.299   0.624  0.2376 -0.2653 -0.0405
    3MOL    C12 5436   7.416  -0.050   0.352 -0.5848  0.6628 -0.6514
    3MOL    C13 5437   7.408  -0.155   0.444 -0.2831  0.5694  0.3749
    3MOL    C14 5438   7.364  -0.129   0.577  0.0072  0.4604  0.0819
    3MOL    C15 5439   7.325   0.000   0.623 -0.1962 -0.5072 -0.7280
    3MOL    C16 5440   7.384  -0.322   0.258 -0.0659 -0.3570  0.1571
    3MOL    C17 5441   7.446  -0.412   0.167 -0.1106 -0.0836  0.4900
    3MOL    C18 5442   7.385  -0.433   0.045 -0.1292 -0.1493  0.4792
    3MOL    C19 5443   7.258  -0.262   0.219  0.3899  0.0354 -0.1000
    3MOL    C20 5444   7.267  -0.374   0.004  0.1289  0.5196  0.2280
    3MOL    C21 5445   7.197  -0.281   0.089 -0.2403  0.0261  0.6551
    3MOL    C22 5446   7.451  -0.298   0.394  1.0695 -0.0547 -0.1717
    3MOL    C23 5447   7.611  -0.289   0.380  0.1602 -0.5154  0.1072
    3MOL     F1 5448   7.650  -0.212   0.274 -0.5387  0.3858 -0.1720
    3MOL     F2 5449   7.678  -0.403   0.374 -0.1887 -0.0586  0.0515
    3MOL     F3 5450   7.663  -0.227   0.489  0.0947  0.2118 -0.3106
    3MOL    C24 5451   7.420  -0.422   0.488 -0.9036 -0.3781  0.2883
    3MOL     F4 5452   7.520  -0.429   0.579 -0.1694 -0.4026 -0.3507
    3MOL     F5 5453   7.412  -0.545   0.425  0.2290 -0.4493 -1.0470
    3MOL     F6 5454   7.303  -0.411   0.555  0.6832 -0.9063  0.3418
    3MOL     O2 5455   7.389   0.212   0.192 -0.5166 -0.1002 -1.0641
    3MOL    C25 5456   7.431  -0.508  -0.078  0.2527 -0.3643  0.6108
    3MOL     N4 5457   7.345  -0.465  -0.185 -0.9862  0.4273 -0.2981
    3MOL    C26 5458   7.241  -0.393  -0.145  0.3052  0.3401 -0.4948
    3MOL     O3 5459   7.154  -0.339  -0.216 -0.7432  0.2368  0.0046
    3MOL    C27 5460   7.028   0.659  -0.056 -0.1779 -0.4811 -0.4339
    3MOL    C28 5461   6.934   0.570  -0.010  0.1316  0.3471  0.1174
    3MOL    C29 5462   7.097   0.633  -0.169  0.4040 -0.0444 -0.8528
    3MOL    C30 5463   6.906   0.455  -0.079  0.2440  0.3629 -0.6908
    3MOL    C31 5464   7.086   0.514  -0.238  0.9436 -0.1672  0.6364
    3MOL    C32 5465   6.979   0.428  -0.200  0.6650  0.8381  0.1614
    3MOL    C33 5466   6.953   0.307  -0.270  0.4559 -0.9422  0.3006
    3MOL     N5 5467   6.899   0.302  -0.401 -0.8477  0.3674  0.3312
    3MOL     N6 5468   6.953   0.176  -0.219  0.1247 -0.6485  0.2616
    3MOL    C34 5469   6.856   0.169  -0.415  0.3980 -0.5330 -0.4118
    3MOL    C35 5470   6.890   0.094  -0.315  0.1349 -0.3237  0.3808
    3MOL    C36 5471   7.035   0.132  -0.099  0.8614 -0.6203 -0.2886
    3MOL     H1 5472   6.967   0.094  -0.015  0.6759  2.1005 -1.2749
    3MOL     H2 5473   7.097   0.215  -0.062 -1.2141  2.4900  0.1256
    3MOL     H3 5474   7.107   0.057  -0.138 -0.7683 -0.0268 -0.8227
    3MOL    C37 5475   6.916   0.394  -0.502 -0.0879  0.1823 -0.3327
    3MOL    C38 5476   6.839   0.514  -0.489 -0.0075 -0.2646  0.1688
    3MOL    C39 5477   6.862   0.617  -0.581  0.2277  0.1880  0.4319
    3MOL    C40 5478   6.954   0.602  -0.690  0.2966  0.6931 -0.1074
    3MOL    C41 5479   7.029   0.479  -0.700  0.3790  0.0093  0.0601
    3MOL    C42 5480   7.015   0.376  -0.598 -0.5832 -0.1777  0.2137
    3MOL    C43 5481   6.864  -0.061  -0.311 -0.2012 -0.0923 -0.6245
    3MOL     F7 5482   6.835  -0.120  -0.433  0.7373 -0.4334  0.0351
    3MOL     F8 5483   6.750  -0.077  -0.234  0.1921  0.2932  0.0605
    3MOL     F9 5484   6.961  -0.126  -0.249 -0.2174 -0.2152  0.1266
    3MOL    C44 5485   7.202   0.888   0.173 -0.6415 -0.8142  0.8059
    3MOL    C45 5486   7.146   0.971   0.087  0.8782 -0.7602 -0.0068
    3MOL    C46 5487   7.147   1.123   0.089  0.4122  0.6336  0.9770
    3MOL    F10 5488   7.138   1.154   0.226  0.2366 -0.4057 -0.0385
    3MOL    F11 5489   7.256   1.168   0.041 -0.6870 -0.4927  0.6318
    3MOL     H4 5490   7.261   0.913   0.257  0.3065 -2.7914  0.7792
    3MOL     H5 5491   6.995   0.590   0.242  0.3834 -1.5737 -1.9532
    3MOL     H6 5492   7.056   0.391   0.371 -2.2585  1.2846 -3.5662
    3MOL     H7 5493   7.411   0.687   0.174  0.0615  0.6173 -0.9828
    3MOL     H8 5494   7.483   0.472   0.313  0.7433  1.2334  0.6284
    3MOL     H9 5495   7.459  -0.066   0.254 -1.0967 -1.6105 -1.1965
    3MOL    H10 5496   7.361  -0.212   0.653 -0.4453  1.4891  2.5591
    3MOL    H11 5497   7.299   0.026   0.728 -0.3985  0.6765  0.8326
    3MOL    H12 5498   7.213  -0.190   0.285  1.3957  1.3272  1.0674
    3MOL    H13 5499   7.538  -0.469   0.184  0.8600  0.2741  1.7578
    3MOL    H14 5500   7.120  -0.212   0.054  3.0062  1.0084  0.7155
    3MOL     O4 5501   7.521  -0.587  -0.083  0.2793  0.0378 -0.4698
    3MOL    H15 5502   6.882   0.586   0.085  0.9190  1.3024  0.1249
    3MOL    H16 5503   6.836   0.377  -0.040  0.0946 -0.5353  0.0020
    3MOL    H17 5504   7.172   0.704  -0.199 -3.0509  0.9014  2.1640
    3MOL    H18 5505   6.815   0.717  -0.570 -3.1772 -1.0991 -2.4857
    3MOL    H19 5506   6.768   0.533  -0.406 -0.6238 -0.0086  1.0949
    3MOL    H20 5507   7.099   0.471  -0.783  2.6677  0.3839  3.5319
    3MOL    H21 5508   7.079   0.287  -0.602 -2.2270  0.9222 -0.2240
    3MOL    H22 5509   6.812   0.135  -0.503  3.8699  2.3547 -1.2277
    3MOL    H23 5510   7.158   0.498  -0.322  1.0436 -0.2975 -0.9891
    3MOL    F12 5511   7.044   1.182   0.025 -0.3569 -0.3118  0.2038
    3MOL    C47 5512   6.988   0.946  -0.116  0.2113 -1.0622 -0.9807
    3MOL    H24 5513   7.041   1.028  -0.170  1.5535 -0.9326 -0.7695
    3MOL    H25 5514   6.908   1.003  -0.055 -0.1599 -1.8996  0.0805
    3MOL    H26 5515   6.958   0.866  -0.184  1.9738 -2.3957  0.2988
    3MOL     N1 5516   7.249  -1.320  -0.717  0.1721  0.8686  0.3796
    3MOL     N2 5517   7.130  -1.262  -0.530 -0.2289 -0.3037 -0.9298
    3MOL     C1 5518   7.181  -1.205  -0.658 -0.7805  0.3198 -0.4949
    3MOL     C2 5519   7.067  -1.193  -0.430 -0.4693  0.0312 -0.4907
    3MOL     C3 5520   7.009  -1.067  -0.458 -0.4706  0.7471  0.4574
    3MOL     C4 5521   6.938  -0.996  -0.362  0.2415  0.3114  0.2232
    3MOL     C5 5522   6.934  -1.053  -0.229  0.3303  0.8799  0.3836
    3MOL     C6 5523   6.978  -1.179  -0.204 -0.5925  0.3020  0.2021
    3MOL     C7 5524   7.047  -1.253  -0.305 -0.0191 -0.0118 -0.4104
    3MOL     N3 5525   6.872  -0.983  -0.126 -0.2673  0.4271  0.4626
    3MOL     C8 5526   6.925  -0.965   0.004  0.2161 -0.0618  0.2664
    3MOL     C9 5527   6.834  -0.868   0.079  0.1856 -0.1316  1.2597
    3MOL    C10 5528   6.727  -0.842  -0.006  0.0951 -0.5710 -0.5643
    3MOL    C11 5529   6.751  -0.924  -0.136  0.3489  0.6309  0.6520
    3MOL     O1 5530   6.677  -0.938  -0.235  0.0482 -0.1753  0.2537
    3MOL    C12 5531   6.861  -0.801   0.199  0.1133  0.4641  0.3016
    3MOL    C13 5532   6.780  -0.692   0.227  0.2199 -0.0794  0.8564
    3MOL    C14 5533   6.659  -0.678   0.147 -0.2437 -0.0080 -0.7389
    3MOL    C15 5534   6.634  -0.742   0.026 -0.2601  0.3068  0.1466
    3MOL    C16 5535   6.781  -0.464   0.270  0.4960  0.2234  0.2548
    3MOL    C17 5536   6.708  -0.361   0.339  0.1054  0.0995  0.7832
    3MOL    C18 5537   6.709  -0.234   0.278  0.0881 -0.0088  0.6123
    3MOL    C19 5538   6.835  -0.445   0.137 -0.3728 -0.2655 -0.1557
    3MOL    C20 5539   6.764  -0.217   0.154  0.3398 -0.0432  0.4573
    3MOL    C21 5540   6.828  -0.315   0.078 -0.6057 -0.0107  0.0231
    3MOL    C22 5541   6.820  -0.598   0.341 -0.5173  0.1083 -0.2311
    3MOL    C23 5542   6.743  -0.629   0.472  0.1754  0.3856  0.0262
    3MOL     F1 5543   6.749  -0.764   0.501  0.3414 -0.0057 -0.3110
    3MOL     F2 5544   6.607  -0.590   0.459 -0.3129  0.0765  0.2091
    3MOL     F3 5545   6.796  -0.559   0.579  0.5315 -0.1410  0.3781
    3MOL    C24 5546   6.976  -0.586   0.370 -0.0782  0.3534 -0.0176
    3MOL     F4 5547   7.008  -0.460   0.412 -0.1728  0.1357  0.3114
    3MOL     F5 5548   7.045  -0.603   0.254 -0.5553 -0.0057  0.3881
    3MOL     F6 5549   7.023  -0.680   0.458 -0.0547  0.1818 -0.1143
    3MOL     O2 5550   7.023  -1.020   0.049  0.2520  0.1510 -0.6032
    3MOL    C25 5551   6.656  -0.102   0.324 -0.7785 -0.4609  0.4338
    3MOL     N4 5552   6.700  -0.015   0.236  0.5321  0.4379 -0.1354
    3MOL    C26 5553   6.754  -0.072   0.123 -0.0016  0.1187  0.2839
    3MOL     O3 5554   6.795  -0.021   0.025  0.1360  0.1903 -0.3625
    3MOL    C27 5555   7.226  -1.073  -0.677  0.1864 -0.1895 -0.5738
    3MOL    C28 5556   7.148  -0.972  -0.736 -0.5650 -0.2897  0.1800
    3MOL    C29 5557   7.362  -1.049  -0.654 -0.2382 -1.2195 -0.4040
    3MOL    C30 5558   7.209  -0.851  -0.766 -0.2607 -0.0685  0.4588
    3MOL    C31 5559   7.422  -0.927  -0.692 -0.5848  0.0452  0.4600
    3MOL    C32 5560   7.348  -0.829  -0.753  0.1293  0.6278  0.4976
    3MOL    C33 5561   7.406  -0.706  -0.792  0.3030  1.2616  0.3507
    3MOL     N5 5562   7.412  -0.580  -0.729 -0.2801  0.1300  0.0914
    3MOL     N6 5563   7.389  -0.678  -0.928  0.4101 -0.2372 -0.1251
    3MOL    C34 5564   7.401  -0.483  -0.833 -0.1542 -0.3807 -0.1995
    3MOL    C35 5565   7.395  -0.546  -0.947 -0.4248 -0.3694 -0.0595
    3MOL    C36 5566   7.355  -0.777  -1.032  0.1889  0.4556  0.2979
    3MOL     H1 5567   7.252  -0.758  -1.069  1.4511  1.2948 -0.0621
    3MOL     H2 5568   7.380  -0.879  -0.990  1.8966  0.6312  1.5402
    3MOL     H3 5569   7.419  -0.761  -1.123  0.7837  0.2359  0.9298
    3MOL    C37 5570   7.394  -0.556  -0.592 -0.6082  0.1258 -0.0881
    3MOL    C38 5571   7.482  -0.467  -0.532 -0.4509  0.1500 -0.3713
    3MOL    C39 5572   7.469  -0.442  -0.394  0.5067  0.0118 -0.4678
    3MOL    C40 5573   7.368  -0.506  -0.317 -0.2807  0.2725 -0.0239
    3MOL    C41 5574   7.281  -0.601  -0.380 -0.4154 -0.9548 -0.1258
    3MOL    C42 5575   7.303  -0.626  -0.510  0.0798 -0.5296  0.7140
    3MOL    C43 5576   7.386  -0.482  -1.085  0.9031  0.2434  0.2168
    3MOL     F7 5577   7.273  -0.527  -1.153  0.1441  0.3423  1.1672
    3MOL     F8 5578   7.501  -0.502  -1.144  0.2489  0.2304 -0.2158
    3MOL     F9 5579   7.377  -0.352  -1.069 -0.2942 -0.4163  0.4387
    3MOL    C44 5580   7.169  -1.397  -0.524  0.1542 -0.1064  0.4970
    3MOL    C45 5581   7.237  -1.431  -0.633  0.3067 -0.0704  0.4979
    3MOL    C46 5582   7.331  -1.552  -0.638  0.3186 -0.4745  0.3747
    3MOL    F10 5583   7.454  -1.526  -0.587 -0.3515 -0.3497 -0.2798
    3MOL    F11 5584   7.287  -1.658  -0.566  0.3354  0.1081 -0.8950
    3MOL     H4 5585   7.148  -1.468  -0.437 -1.3285 -0.9178  4.0616
    3MOL     H5 5586   7.028  -1.022  -0.552 -0.2826  0.5044  1.0835
    3MOL     H6 5587   6.909  -0.895  -0.385  1.2047 -1.4463  1.0373
    3MOL     H7 5588   7.085  -1.355  -0.295  3.8542  1.9262 -5.5056
    3MOL     H8 5589   6.960  -1.225  -0.103 -1.8112 -0.9103 -1.5378
    3MOL     H9 5590   6.947  -0.834   0.256  0.2808 -1.2962  1.7882
    3MOL    H10 5591   6.585  -0.598   0.181 -3.1694  1.6122 -1.0498
    3MOL    H11 5592   6.551  -0.715  -0.038  0.8411  1.8279 -0.1792
    3MOL    H12 5593   6.887  -0.530   0.084 -0.2106 -0.8843  0.6137
    3MOL    H13 5594   6.688  -0.363   0.444  3.3582  1.4123 -1.4814
    3MOL    H14 5595   6.887  -0.300  -0.013 -0.1704 -2.3115 -0.5890
    3MOL     O4 5596   6.606  -0.073   0.433 -0.1719  0.0972  0.4750
    3MOL    H15 5597   7.043  -0.984  -0.751  2.2842  2.6464 -1.9512
    3MOL    H16 5598   7.155  -0.762  -0.803  0.5209  1.9127  0.4532
    3MOL    H17 5599   7.426  -1.137  -0.626  3.8647  0.6957  0.9173
    3MOL    H18 5600   7.531  -0.367  -0.345 -1.6774  1.3541  0.6880
    3MOL    H19 5601   7.558  -0.420  -0.593 -0.5156  0.6958  0.5346
    3MOL    H20 5602   7.208  -0.655  -0.323  0.2910 -0.9353  0.4134
    3MOL    H21 5603   7.234  -0.698  -0.553  1.6335  0.4578 -0.3834
    3MOL    H22 5604   7.414  -0.377  -0.819 -1.8940  1.1382 -1.0438
    3MOL    H23 5605   7.529  -0.917  -0.686 -0.3296  1.3155 -2.1367
    3MOL    F12 5606   7.357  -1.601  -0.759 -0.0424  0.5404 -0.0882
    3MOL    C47 5607   7.318  -1.311  -0.843  0.6680 -0.0094 -0.0018
    3MOL    H24 5608   7.251  -1.351  -0.922 -0.4221 -0.6124 -0.0954
    3MOL    H25 5609   7.411  -1.359  -0.842  0.7212  0.1875 -0.8535
    3MOL    H26 5610   7.350  -1.213  -0.874  0.4806 -0.6650 -0.2821
    3MOL     N1 5611   6.093   0.390   0.767  0.0892 -0.2564 -0.1706
    3MOL     N2 5612   6.294   0.379   0.865 -0.4996  0.0736 -0.1811
    3MOL     C1 5613   6.231   0.412   0.739  0.6321 -0.2721  0.1432
    3MOL     C2 5614   6.397   0.288   0.891 -0.8340 -0.4310  0.2929
    3MOL     C3 5615   6.423   0.179   0.808  0.0986 -0.0851 -0.3402
    3MOL     C4 5616   6.510   0.080   0.862 -0.3834 -0.8032 -0.5050
    3MOL     C5 5617   6.584   0.096   0.987  0.3206 -0.3539  0.0284
    3MOL     C6 5618   6.562   0.210   1.062 -0.2082  0.1936  0.0604
    3MOL     C7 5619   6.466   0.306   1.016 -0.4407 -0.8912 -0.1681
    3MOL     N3 5620   6.663  -0.013   1.042 -0.3943  0.1189  0.2127
    3MOL     C8 5621   6.603  -0.133   1.076 -0.4779  0.8199  0.6144
    3MOL     C9 5622   6.715  -0.223   1.106  0.5716 -0.2811  0.1362
    3MOL    C10 5623   6.834  -0.156   1.090 -0.0720 -0.4555 -0.1231
    3MOL    C11 5624   6.801  -0.018   1.037 -0.0983  0.2625 -0.1240
    3MOL     O1 5625   6.869   0.073   0.998  0.1583  0.1644  0.1956
    3MOL    C12 5626   6.715  -0.358   1.141 -0.3984 -0.8028 -0.0943
    3MOL    C13 5627   6.836  -0.429   1.151 -0.4573 -0.3437  0.2428
    3MOL    C14 5628   6.959  -0.352   1.144  0.3216  0.3981  0.1418
    3MOL    C15 5629   6.962  -0.212   1.115  0.6103 -0.0227 -0.6752
    3MOL    C16 5630   6.742  -0.632   1.038 -0.4439 -0.7459 -0.5649
    3MOL    C17 5631   6.694  -0.766   1.033 -0.4241  0.2202  0.4516
    3MOL    C18 5632   6.627  -0.807   0.917  0.0053  0.4161 -0.8714
    3MOL    C19 5633   6.713  -0.545   0.926  0.3886  0.8759 -0.2161
    3MOL    C20 5634   6.593  -0.722   0.812  0.1178 -0.2689  0.2080
    3MOL    C21 5635   6.638  -0.593   0.815 -0.9564 -0.0569  0.1105
    3MOL    C22 5636   6.825  -0.580   1.166 -0.2768  0.3995 -0.3290
    3MOL    C23 5637   6.963  -0.645   1.168 -0.2372 -0.5813  0.7148
    3MOL     F1 5638   7.016  -0.613   1.053 -0.1932 -0.1710 -0.1056
    3MOL     F2 5639   6.955  -0.776   1.179  0.3003 -0.2787  0.0445
    3MOL     F3 5640   7.052  -0.604   1.263  0.0771  0.0970  0.3961
    3MOL    C24 5641   6.750  -0.619   1.307  0.3824 -0.0974  0.1785
    3MOL     F4 5642   6.827  -0.697   1.388 -0.1112 -0.0320  0.1897
    3MOL     F5 5643   6.623  -0.678   1.278  0.3519  0.2855 -0.2275
    3MOL     F6 5644   6.736  -0.512   1.381  0.0594  0.2503 -0.7351
    3MOL     O2 5645   6.484  -0.149   1.086 -0.5211 -0.1724  0.3069
    3MOL    C25 5646   6.552  -0.934   0.893  0.2571 -0.3206  0.2139
    3MOL     N4 5647   6.472  -0.916   0.777 -0.1921 -0.0031  0.4786
    3MOL    C26 5648   6.498  -0.789   0.721  0.0998  0.0607  0.2252
    3MOL     O3 5649   6.446  -0.742   0.624 -0.6460  0.0568  0.5123
    3MOL    C27 5650   6.286   0.452   0.614  0.0223 -0.2507  0.2718
    3MOL    C28 5651   6.223   0.487   0.497 -0.3536 -0.1285 -0.0145
    3MOL    C29 5652   6.428   0.462   0.617 -0.5600  0.3431  0.0205
    3MOL    C30 5653   6.290   0.552   0.394 -0.2176 -0.1454 -0.0201
    3MOL    C31 5654   6.496   0.513   0.507 -0.7177  0.2901  0.3947
    3MOL    C32 5655   6.426   0.559   0.396 -0.0621  0.5350 -0.3793
    3MOL    C33 5656   6.491   0.600   0.281  0.9988 -0.8686 -0.7985
    3MOL     N5 5657   6.575   0.522   0.196 -0.6401  0.2497 -0.5150
    3MOL     N6 5658   6.484   0.731   0.229 -0.1226 -0.8304 -0.1065
    3MOL    C34 5659   6.619   0.613   0.101  0.0443  0.4214  0.4559
    3MOL    C35 5660   6.574   0.735   0.122 -0.3461  0.6000 -0.5781
    3MOL    C36 5661   6.429   0.848   0.302 -0.5237 -0.4856 -0.2979
    3MOL     H1 5662   6.324   0.868   0.269  1.7471 -1.8802 -2.9101
    3MOL     H2 5663   6.490   0.940   0.286  0.2837 -1.2185  2.2900
    3MOL     H3 5664   6.457   0.837   0.414 -1.0245  0.1788  2.5952
    3MOL    C37 5665   6.613   0.395   0.213 -0.1054 -0.3953  0.5194
    3MOL    C38 5666   6.749   0.356   0.207  0.3657  0.0959 -0.1331
    3MOL    C39 5667   6.782   0.226   0.217 -0.3272  0.0113 -0.5318
    3MOL    C40 5668   6.677   0.128   0.235 -0.2668 -0.3426  0.5333
    3MOL    C41 5669   6.538   0.170   0.237 -0.4493  0.7729 -0.0153
    3MOL    C42 5670   6.510   0.306   0.233 -0.0749 -0.1805  0.5225
    3MOL    C43 5671   6.624   0.849   0.038 -0.2588  1.0983 -1.1160
    3MOL     F7 5672   6.765   0.863   0.033  0.6590 -0.5810  0.4154
    3MOL     F8 5673   6.561   0.970   0.066 -0.0530  0.0207  0.2333
    3MOL     F9 5674   6.588   0.823  -0.087  0.1153  0.5899  0.1730
    3MOL    C44 5675   6.194   0.392   0.961 -0.0415  0.4522  0.1088
    3MOL    C45 5676   6.074   0.397   0.909 -0.3667  0.1393  0.3636
    3MOL    C46 5677   5.944   0.412   0.971  0.4460 -0.6255 -0.4866
    3MOL    F10 5678   5.863   0.307   0.942 -0.3460  0.3981 -0.8800
    3MOL    F11 5679   5.955   0.422   1.104 -0.4525  0.2749 -0.2810
    3MOL     H4 5680   6.237   0.406   1.060  0.8039  2.5278 -2.4244
    3MOL     H5 5681   6.367   0.158   0.718  1.1910  0.1503 -0.5013
    3MOL     H6 5682   6.531  -0.017   0.811  0.5203 -0.8443 -1.9075
    3MOL     H7 5683   6.437   0.394   1.077  0.3572  1.3181 -2.6795
    3MOL     H8 5684   6.617   0.224   1.156 -1.9459  0.2639  1.9737
    3MOL     H9 5685   6.622  -0.408   1.153 -0.3604  2.8230 -0.8675
    3MOL    H10 5686   7.056  -0.401   1.160  1.7519 -2.6618 -0.1212
    3MOL    H11 5687   7.052  -0.149   1.110 -0.3006 -0.1755 -1.0569
    3MOL    H12 5688   6.746  -0.444   0.923 -1.1780 -0.3367  3.5515
    3MOL    H13 5689   6.700  -0.841   1.115 -1.9897 -0.7283 -1.1896
    3MOL    H14 5690   6.611  -0.528   0.732 -1.3384 -2.3190  0.1658
    3MOL     O4 5691   6.580  -1.038   0.945 -0.3876  0.2981 -0.2955
    3MOL    H15 5692   6.122   0.458   0.479 -0.2164  4.7025  0.7025
    3MOL    H16 5693   6.240   0.583   0.306 -2.3060  0.5456  1.5033
    3MOL    H17 5694   6.492   0.434   0.702 -0.5281 -1.0366 -0.1958
    3MOL    H18 5695   6.883   0.200   0.192 -2.9625  1.3502 -0.5688
    3MOL    H19 5696   6.823   0.432   0.204  0.7083  0.1912  1.5884
    3MOL    H20 5697   6.461   0.092   0.244  2.0257  0.5457  0.2563
    3MOL    H21 5698   6.409   0.336   0.227  0.9646 -1.7689 -1.0032
    3MOL    H22 5699   6.692   0.585   0.033  0.8469 -1.8912 -3.6223
    3MOL    H23 5700   6.603   0.518   0.506 -0.5382  2.1548 -0.6711
    3MOL    F12 5701   5.880   0.519   0.927  0.2176  0.3439  0.0853
    3MOL    C47 5702   5.985   0.360   0.669  0.0745 -0.9385  0.3054
    3MOL    H24 5703   5.943   0.451   0.633 -0.8041 -2.8017  0.3095
    3MOL    H25 5704   5.897   0.316   0.717  1.7660  2.5050 -0.1279
    3MOL    H26 5705   6.024   0.311   0.584  2.4456  0.5973 -0.7431
    3MOL    H27 5706   6.420  -0.987   0.736  0.7047  2.1060  2.8022
    4MOL     N1 5707   3.194   4.101   0.026 -0.7196 -0.2665  0.5217
    4MOL     N2 5708   3.390   4.013   0.102 -0.3682 -0.0375  0.0241
    4MOL     C1 5709   3.263   3.981   0.057 -0.1783 -0.3048 -0.6340
    4MOL     C2 5710   3.489   3.926   0.118 -0.5132  0.4903  0.7538
    4MOL     C3 5711   3.516   3.836   0.013  0.7421 -0.3147  0.3038
    4MOL     C4 5712   3.598   3.727   0.036  0.5954 -0.0624  0.1057
    4MOL     C5 5713   3.667   3.706   0.153 -0.1955 -0.5220  0.3226
    4MOL     C6 5714   3.637   3.803   0.257  0.9661 -0.8502 -0.5953
    4MOL     C7 5715   3.542   3.909   0.241 -0.3269  0.1038 -0.5393
    4MOL     N3 5716   3.757   3.598   0.165 -0.2240  0.1486  0.5085
    4MOL     C8 5717   3.739   3.479   0.093 -0.0098  0.0539 -0.0028
    4MOL     C9 5718   3.836   3.384   0.146  0.1586  0.5036  0.0369
    4MOL    C10 5719   3.922   3.453   0.229 -0.4535  0.1159 -0.5140
    4MOL    C11 5720   3.868   3.590   0.248 -0.5034  0.1081  0.7650
    4MOL     O1 5721   3.919   3.677   0.317 -0.2127  0.1211 -0.3750
    4MOL    C12 5722   3.859   3.248   0.114  0.0890 -0.2358  0.8185
    4MOL    C13 5723   3.975   3.182   0.162 -0.7302 -0.8206  0.8330
    4MOL    C14 5724   4.067   3.266   0.232  0.2408  0.2363 -0.0696
    4MOL    C15 5725   4.040   3.399   0.282  0.7117 -0.0216 -0.8076
    4MOL    C16 5726   4.041   2.992   0.320  0.1329 -0.1947  0.4758
    4MOL    C17 5727   4.151   2.900   0.353  0.1750 -0.3310 -0.2541
    4MOL    C18 5728   4.181   2.879   0.481 -0.8604 -0.2369  0.1398
    4MOL    C19 5729   3.965   3.038   0.430  0.3268  0.5485  0.0583
    4MOL    C20 5730   4.120   2.946   0.584  0.5242 -0.1268 -0.0260
    4MOL    C21 5731   4.005   3.019   0.563 -0.2672 -0.4763 -0.0520
    4MOL    C22 5732   4.006   3.030   0.168  0.6411  0.9655 -0.4417
    4MOL    C23 5733   3.876   2.950   0.129 -0.1732  0.2566  0.0468
    4MOL     F1 5734   3.894   2.822   0.144 -0.4795  0.2682  0.6449
    4MOL     F2 5735   3.832   2.964   0.001 -0.3754 -0.5216 -0.1047
    4MOL     F3 5736   3.775   2.984   0.209  0.3275  0.0181  0.3989
    4MOL    C24 5737   4.110   2.999   0.067 -0.3406 -0.1659 -0.8745
    4MOL     F4 5738   4.229   3.057   0.101  0.4665 -0.2185  0.2627
    4MOL     F5 5739   4.075   3.037  -0.057 -0.0263 -0.1735 -0.2050
    4MOL     F6 5740   4.133   2.867   0.041 -0.3892 -0.2075  0.1893
    4MOL     O2 5741   3.651   3.445   0.021 -0.0170 -0.7023  0.0786
    4MOL    C25 5742   4.278   2.787   0.549 -0.4594 -0.1796  0.4975
    4MOL     N4 5743   4.269   2.800   0.683  0.6206  0.0190  0.2320
    4MOL    C26 5744   4.169   2.892   0.711 -0.6499  0.2072 -0.5612
    4MOL     O3 5745   4.126   2.917   0.823 -0.1288  0.0122  0.1370
    4MOL    C27 5746   3.207   3.854   0.065 -0.8372  0.1705 -0.5383
    4MOL    C28 5747   3.191   3.788   0.187  0.0275  0.7548  0.2444
    4MOL    C29 5748   3.156   3.787  -0.049 -0.4310 -0.2481 -0.1207
    4MOL    C30 5749   3.131   3.664   0.195 -0.6934 -0.3604  0.2890
    4MOL    C31 5750   3.101   3.659  -0.044 -0.4794  0.0909 -0.3159
    4MOL    C32 5751   3.095   3.589   0.080 -0.3115  0.0715  1.1038
    4MOL    C33 5752   3.047   3.459   0.088  0.3840  0.4278 -0.9492
    4MOL     N5 5753   3.088   3.349   0.005  0.4774  0.2294  0.0194
    4MOL     N6 5754   2.991   3.403   0.204 -0.5025 -0.0337 -0.2767
    4MOL    C34 5755   3.062   3.233   0.085  0.2571 -0.2906  0.2208
    4MOL    C35 5756   3.010   3.266   0.202  0.7138 -0.6503 -0.3784
    4MOL    C36 5757   2.874   3.466   0.262  0.4244 -0.3229 -0.0163
    4MOL     H1 5758   2.852   3.561   0.212  1.2150 -1.6536  1.4041
    4MOL     H2 5759   2.876   3.483   0.365 -0.9056  0.2499 -1.1032
    4MOL     H3 5760   2.785   3.398   0.244 -0.7485  1.0807  1.4484
    4MOL    C37 5761   3.153   3.346  -0.123  0.3727  0.6212  0.1102
    4MOL    C38 5762   3.299   3.343  -0.124  0.0261 -0.0443  0.1010
    4MOL    C39 5763   3.366   3.314  -0.249  0.9574 -0.1947 -0.0374
    4MOL    C40 5764   3.288   3.298  -0.368 -0.3178 -0.3332 -0.3137
    4MOL    C41 5765   3.150   3.295  -0.365  0.8021  0.0219  0.5415
    4MOL    C42 5766   3.082   3.315  -0.241  0.4795  0.3604 -0.0203
    4MOL    C43 5767   2.965   3.163   0.309 -0.7124  0.1890 -0.2054
    4MOL     F7 5768   3.058   3.063   0.313  0.1133  0.1787 -0.1833
    4MOL     F8 5769   2.844   3.113   0.275 -0.7182  0.1200 -0.4518
    4MOL     F9 5770   2.963   3.219   0.430 -0.0030 -0.0428 -0.1396
    4MOL    C44 5771   3.399   4.150   0.106  0.2296  0.4407 -0.0698
    4MOL    C45 5772   3.288   4.203   0.048 -0.3672  0.0320  0.4232
    4MOL    C46 5773   3.270   4.354   0.026 -0.2110 -0.2838 -0.2957
    4MOL    F10 5774   3.387   4.413  -0.001 -0.3824 -0.0049 -0.3428
    4MOL    F11 5775   3.187   4.383  -0.075  0.2006  0.6185  0.5763
    4MOL     H4 5776   3.495   4.192   0.136  1.2648  0.2954 -0.1806
    4MOL     H5 5777   3.472   3.849  -0.085  0.5180  2.2770 -1.6234
    4MOL     H6 5778   3.609   3.657  -0.049 -0.8832 -2.1949 -1.2496
    4MOL     H7 5779   3.519   3.972   0.323 -1.2594 -0.0653 -2.7352
    4MOL     H8 5780   3.679   3.786   0.354  1.8848  0.3097 -2.1217
    4MOL     H9 5781   3.774   3.199   0.062 -2.3003 -0.4702  0.0686
    4MOL    H10 5782   4.160   3.218   0.262 -0.1661 -1.1200 -1.4474
    4MOL    H11 5783   4.105   3.452   0.357  1.2382  0.8335 -3.5173
    4MOL    H12 5784   3.873   3.089   0.405 -0.2234 -3.4427 -0.5909
    4MOL    H13 5785   4.196   2.838   0.280  0.6786 -0.7163  0.3738
    4MOL    H14 5786   3.949   3.062   0.646  0.8440 -0.5710 -0.7936
    4MOL     O4 5787   4.369   2.721   0.496 -0.3249 -0.0434  0.1566
    4MOL    H15 5788   3.230   3.830   0.279 -0.1500  0.0612  0.2526
    4MOL    H16 5789   3.125   3.617   0.300  1.0343  1.1582  3.0558
    4MOL    H17 5790   3.161   3.837  -0.153 -3.5551 -0.1830 -1.2608
    4MOL    H18 5791   3.474   3.314  -0.256 -2.0523 -0.3454 -2.9829
    4MOL    H19 5792   3.337   3.290  -0.462 -0.6846 -0.8832 -0.9848
    4MOL    H20 5793   3.363   3.368  -0.037  0.3647 -1.1636  0.2626
    4MOL    H21 5794   3.088   3.286  -0.457 -1.2383 -1.7194 -3.0812
    4MOL    H22 5795   2.970   3.302  -0.246  1.2577 -2.0352 -1.3156
    4MOL    H23 5796   3.088   3.135   0.045 -1.6577  1.5362 -4.2757
    4MOL    H24 5797   3.069   3.618  -0.144  1.4838 -0.3161 -0.3599
    4MOL    F12 5798   3.228   4.426   0.129  0.5911  0.2263 -0.4150
    4MOL    C47 5799   3.052   4.113   0.049  0.1199 -0.1805 -0.1801
    4MOL    H25 5800   3.000   4.156  -0.034  2.3578  0.2450  1.6370
    4MOL    H26 5801   3.034   4.179   0.132  0.7265 -1.6683 -1.2068
    4MOL    H27 5802   3.003   4.022   0.059 -2.0716  0.2467  3.2705
    4MOL     N1 5803   4.321   3.167   1.102  0.2666 -0.0387 -0.2930
    4MOL     N2 5804   4.328   3.211   1.319 -0.2648 -0.2338 -0.1105
    4MOL     C1 5805   4.349   3.111   1.224 -0.1156 -0.5752  0.6787
    4MOL     C2 5806   4.353   3.204   1.454  0.2848  0.4133 -0.1653
    4MOL     C3 5807   4.425   3.312   1.510 -0.0393 -0.1801  0.3401
    4MOL     C4 5808   4.463   3.312   1.643  0.3199 -1.3705  0.0896
    4MOL     C5 5809   4.445   3.195   1.721 -0.0200  0.3358 -0.2825
    4MOL     C6 5810   4.389   3.080   1.664  0.2850 -0.2761  0.2804
    4MOL     C7 5811   4.340   3.088   1.536 -0.6615 -0.5435  1.0871
    4MOL     N3 5812   4.463   3.197   1.860  0.5890 -0.3218  0.0572
    4MOL     C8 5813   4.354   3.198   1.944 -0.1298 -0.0874  0.2398
    4MOL     C9 5814   4.404   3.249   2.072 -0.2651 -0.0027 -0.2727
    4MOL    C10 5815   4.539   3.268   2.062 -0.8104  0.4262 -0.4959
    4MOL    C11 5816   4.588   3.223   1.923 -0.8338  0.1710 -0.2086
    4MOL     O1 5817   4.699   3.207   1.883  0.0304 -0.1787  0.1964
    4MOL    C12 5818   4.329   3.294   2.178  0.7976  0.8111  0.1052
    4MOL    C13 5819   4.392   3.356   2.291  0.5626 -0.9739  0.2693
    4MOL    C14 5820   4.537   3.364   2.286 -0.6019  0.2590  0.2399
    4MOL    C15 5821   4.612   3.318   2.175  0.1273 -0.4667 -0.0020
    4MOL    C16 5822   4.354   3.575   2.417  0.2124 -0.5396 -0.3690
    4MOL    C17 5823   4.368   3.648   2.292  0.0602 -0.5221  0.6631
    4MOL    C18 5824   4.389   3.786   2.295  0.2907  0.5509 -0.2404
    4MOL    C19 5825   4.346   3.650   2.542 -0.1354  0.4170 -0.5110
    4MOL    C20 5826   4.391   3.846   2.416 -0.1853  0.0714 -0.0449
    4MOL    C21 5827   4.371   3.787   2.540 -0.1486  0.4698  0.9130
    4MOL    C22 5828   4.314   3.421   2.405 -0.2751  0.7334 -0.2292
    4MOL    C23 5829   4.158   3.418   2.383 -0.4452  0.3271 -1.0830
    4MOL     F1 5830   4.091   3.483   2.479 -0.1951 -0.3976 -0.3485
    4MOL     F2 5831   4.110   3.294   2.384 -0.1804 -0.4265 -0.0385
    4MOL     F3 5832   4.111   3.470   2.272 -0.6193 -1.0616 -0.1416
    4MOL    C24 5833   4.333   3.331   2.538 -0.4760 -0.4986 -0.0058
    4MOL     F4 5834   4.293   3.204   2.512  0.0918  0.7269 -0.0313
    4MOL     F5 5835   4.263   3.379   2.644  0.1425 -0.1572 -0.2279
    4MOL     F6 5836   4.461   3.320   2.575 -0.4922  0.3159 -0.0422
    4MOL     O2 5837   4.237   3.175   1.914 -0.5965  0.6340  0.4889
    4MOL    C25 5838   4.384   3.885   2.191  0.0980  0.1760  0.4719
    4MOL     N4 5839   4.406   4.005   2.251 -0.1821 -0.2587 -0.4089
    4MOL    C26 5840   4.410   3.990   2.387  0.6850 -0.4684 -0.4815
    4MOL     O3 5841   4.430   4.080   2.470  0.2233  0.1582 -0.2377
    4MOL    C27 5842   4.374   2.976   1.239 -0.7593 -0.1291  0.8355
    4MOL    C28 5843   4.253   2.898   1.230  0.2680 -0.4920 -0.3223
    4MOL    C29 5844   4.491   2.919   1.289 -0.7562  0.9700 -1.4396
    4MOL    C30 5845   4.257   2.759   1.257 -0.2971  0.7171  0.2404
    4MOL    C31 5846   4.494   2.784   1.312  0.0544  0.2186 -0.1989
    4MOL    C32 5847   4.385   2.703   1.282  0.4263 -0.4029 -0.0327
    4MOL    C33 5848   4.409   2.570   1.256  0.6972 -0.0442  0.6345
    4MOL     N5 5849   4.460   2.523   1.134  0.0902  0.3843 -0.3474
    4MOL     N6 5850   4.432   2.464   1.348  0.0211  0.4909 -0.0292
    4MOL    C34 5851   4.505   2.388   1.159  0.0437 -0.1824  0.3118
    4MOL    C35 5852   4.495   2.354   1.284 -0.4891  0.1896 -0.5837
    4MOL    C36 5853   4.371   2.454   1.484 -1.0022 -0.0215 -0.3239
    4MOL     H1 5854   4.305   2.367   1.495  1.0053  1.0655 -0.7475
    4MOL     H2 5855   4.307   2.547   1.513 -0.3372  1.3997  0.7148
    4MOL     H3 5856   4.458   2.459   1.555 -2.1279  0.0322 -1.9224
    4MOL    C37 5857   4.429   2.583   1.009  0.2522 -0.6085 -0.8432
    4MOL    C38 5858   4.470   2.712   0.980  0.8951 -0.5407  0.5510
    4MOL    C39 5859   4.432   2.777   0.864 -0.5373  0.5766  0.0066
    4MOL    C40 5860   4.332   2.721   0.781 -1.0414 -0.3863  0.0921
    4MOL    C41 5861   4.280   2.599   0.813 -0.1824 -0.1024 -0.2939
    4MOL    C42 5862   4.330   2.529   0.921 -0.9622 -0.5671 -0.0028
    4MOL    C43 5863   4.512   2.221   1.345 -0.0679  0.7276 -0.3717
    4MOL     F7 5864   4.395   2.191   1.417 -0.1258  0.5230 -0.0580
    4MOL     F8 5865   4.618   2.232   1.430  0.2736 -0.2067  0.1360
    4MOL     F9 5866   4.539   2.114   1.266 -0.0121  0.2117 -0.2041
    4MOL    C44 5867   4.283   3.325   1.250 -0.3797  0.4459  0.1391
    4MOL    C45 5868   4.288   3.303   1.120 -0.0170  0.4747 -0.4501
    4MOL    C46 5869   4.268   3.406   1.007 -0.0998  0.2381  0.0925
    4MOL    F10 5870   4.208   3.353   0.894  0.2992 -0.6358  0.1661
    4MOL    F11 5871   4.189   3.503   1.048  0.1968  0.4635  0.3286
    4MOL     H4 5872   4.261   3.418   1.300 -1.8949  1.2221 -1.9126
    4MOL     H5 5873   4.435   3.404   1.457  0.4999  0.6604  2.4685
    4MOL     H6 5874   4.525   3.400   1.666  1.7203 -1.7136  1.5862
    4MOL     H7 5875   4.307   2.998   1.483  0.6700  1.8380  2.3621
    4MOL     H8 5876   4.371   2.992   1.730  1.1348  2.6890  0.9392
    4MOL     H9 5877   4.216   3.282   2.177 -1.8518 -2.0663 -2.6357
    4MOL    H10 5878   4.589   3.400   2.371  0.1223 -1.4621  0.3060
    4MOL    H11 5879   4.718   3.333   2.183 -0.1646  1.9689  1.5742
    4MOL    H12 5880   4.326   3.597   2.638  0.6570 -0.5137  0.8539
    4MOL    H13 5881   4.341   3.596   2.198  0.5679  0.1426 -3.2011
    4MOL    H14 5882   4.382   3.842   2.634  0.4428 -0.0681 -2.2712
    4MOL     O4 5883   4.354   3.870   2.076 -0.1760 -0.2090 -0.1199
    4MOL    H15 5884   4.163   2.943   1.189  0.6691  3.7214 -3.2871
    4MOL    H16 5885   4.172   2.700   1.239  0.7659 -2.2912  1.3859
    4MOL    H17 5886   4.572   2.988   1.310 -2.9832  3.0241 -1.2374
    4MOL    H18 5887   4.472   2.878   0.847 -0.2568 -0.4459  2.1654
    4MOL    H19 5888   4.537   2.760   1.044 -2.1818  0.8805 -0.9031
    4MOL    H20 5889   4.205   2.566   0.745 -1.5157  0.8841 -0.2969
    4MOL    H21 5890   4.286   2.433   0.937  0.2269  0.8787 -0.9489
    4MOL    H22 5891   4.537   2.322   1.077  1.0551  1.0475  0.2120
    4MOL    H23 5892   4.592   2.735   1.333 -0.0195  2.2435 -1.0277
    4MOL    F12 5893   4.386   3.454   0.969  0.4110 -0.0335  0.3672
    4MOL    C47 5894   4.337   3.100   0.974  0.0487 -0.4909  0.2796
    4MOL    H24 5895   4.444   3.066   0.956 -0.3895 -2.6117 -0.8628
    4MOL    H25 5896   4.312   3.167   0.889 -0.5085 -0.9900 -1.4380
    4MOL    H26 5897   4.282   3.008   0.984  1.0437  0.1103  0.5854
    4MOL     N1 5898   5.059   4.061   1.735  0.4121 -0.2388  0.2005
    4MOL     N2 5899   4.909   3.960   1.601 -0.1381  0.3970 -1.1635
    4MOL     C1 5900   4.933   4.082   1.672 -0.6317  0.2663 -0.0813
    4MOL     C2 5901   4.831   3.940   1.490 -0.3154  0.3517 -0.2053
    4MOL     C3 5902   4.825   4.046   1.398  0.0222 -1.1126 -0.0210
    4MOL     C4 5903   4.764   4.015   1.278  0.0172  0.0407  0.2034
    4MOL     C5 5904   4.699   3.892   1.260 -0.7033  0.1423  0.3870
    4MOL     C6 5905   4.705   3.796   1.355 -0.4157 -0.7185 -0.1438
    4MOL     C7 5906   4.772   3.818   1.473 -0.0778  0.6494  0.0167
    4MOL     N3 5907   4.628   3.863   1.142 -0.6604  0.0635  0.2549
    4MOL     C8 5908   4.493   3.885   1.121 -0.2565  0.3327 -0.4307
    4MOL     C9 5909   4.469   3.844   0.976  0.1566 -0.0096 -0.6887
    4MOL    C10 5910   4.586   3.789   0.927 -0.1315  0.9916 -0.2332
    4MOL    C11 5911   4.690   3.802   1.034 -0.1507  0.4497 -0.6143
    4MOL     O1 5912   4.808   3.773   1.024 -0.7601 -0.3681 -0.1570
    4MOL    C12 5913   4.354   3.837   0.903  0.0129 -0.3859 -0.5489
    4MOL    C13 5914   4.358   3.774   0.776  0.1334 -0.2144  0.1713
    4MOL    C14 5915   4.477   3.719   0.719 -0.4144  0.0546 -0.1770
    4MOL    C15 5916   4.595   3.726   0.799 -0.0619  0.2570  0.7568
    4MOL    C16 5917   4.230   3.868   0.565  0.8156 -0.0756  0.5357
    4MOL    C17 5918   4.347   3.949   0.552 -0.0238 -0.4995  0.3566
    4MOL    C18 5919   4.381   4.003   0.424  0.6371 -0.3073  0.4779
    4MOL    C19 5920   4.134   3.859   0.456 -0.1999  0.1212 -0.4833
    4MOL    C20 5921   4.289   3.989   0.324 -0.7852 -0.4039  0.1659
    4MOL    C21 5922   4.166   3.924   0.334 -0.1216  0.0742  0.2882
    4MOL    C22 5923   4.228   3.772   0.689 -0.0205  0.4709  0.4388
    4MOL    C23 5924   4.200   3.628   0.628  0.9347 -0.5566  0.1319
    4MOL     F1 5925   4.070   3.599   0.596 -0.7095  1.0620  0.0998
    4MOL     F2 5926   4.237   3.531   0.709 -0.3177 -0.6244  0.2079
    4MOL     F3 5927   4.272   3.601   0.518  0.4995  0.0423 -0.3989
    4MOL    C24 5928   4.103   3.807   0.774 -0.6017  0.4630 -0.1066
    4MOL     F4 5929   4.099   3.727   0.884  0.4282  0.4516  0.1616
    4MOL     F5 5930   3.988   3.796   0.708  0.2888  0.2357 -0.4171
    4MOL     F6 5931   4.109   3.934   0.816 -0.3498 -0.1121 -0.2439
    4MOL     O2 5932   4.420   3.931   1.204 -1.0734 -0.6763  0.7647
    4MOL    C25 5933   4.501   4.080   0.372 -0.1289  0.2235  0.1438
    4MOL     N4 5934   4.478   4.090   0.239 -0.1675 -0.7476  0.1314
    4MOL    C26 5935   4.354   4.044   0.197 -0.8197 -0.6610  0.0625
    4MOL     O3 5936   4.320   4.047   0.078 -0.1375  0.2289  0.2598
    4MOL    C27 5937   4.839   4.179   1.700  0.2101  0.4035 -0.0251
    4MOL    C28 5938   4.880   4.296   1.769  0.4845 -0.3013  0.9311
    4MOL    C29 5939   4.696   4.156   1.678  0.1460  0.6488 -0.3941
    4MOL    C30 5940   4.780   4.384   1.812 -0.2498 -0.6445  0.1534
    4MOL    C31 5941   4.606   4.255   1.717 -0.0909 -0.7919  0.0022
    4MOL    C32 5942   4.646   4.371   1.781  0.1505 -0.6148 -0.4879
    4MOL    C33 5943   4.555   4.473   1.821  0.2395 -0.2927 -0.0212
    4MOL     N5 5944   4.448   4.455   1.908  0.3224 -0.7944 -0.0681
    4MOL     N6 5945   4.533   4.591   1.750  0.6167  0.2068  0.2137
    4MOL    C34 5946   4.364   4.560   1.886  0.4656 -0.3245  1.0033
    4MOL    C35 5947   4.414   4.643   1.799 -0.4808 -0.1447 -0.0941
    4MOL    C36 5948   4.642   4.666   1.684 -0.4965  0.5339 -0.1177
    4MOL     H1 5949   4.740   4.641   1.734  2.0890  1.3043  0.0717
    4MOL     H2 5950   4.620   4.774   1.683  0.3679  0.2644 -2.0551
    4MOL     H3 5951   4.655   4.645   1.575 -1.2769  0.8167  2.6307
    4MOL    C37 5952   4.441   4.355   2.005 -1.0200 -0.4944 -0.0764
    4MOL    C38 5953   4.555   4.304   2.071  0.5567 -0.6228 -1.2143
    4MOL    C39 5954   4.545   4.191   2.155 -0.5298 -0.1370 -0.5117
    4MOL    C40 5955   4.420   4.129   2.177  0.0230 -0.0987 -0.0159
    4MOL    C41 5956   4.305   4.186   2.115  0.3948  0.5295 -0.5095
    4MOL    C42 5957   4.315   4.295   2.030 -0.0048  0.4049  0.5107
    4MOL    C43 5958   4.342   4.762   1.746  0.1549  0.2543 -0.2428
    4MOL     F7 5959   4.364   4.877   1.819 -0.1899 -1.3774 -0.7985
    4MOL     F8 5960   4.206   4.738   1.743  0.2379 -0.6599  0.1136
    4MOL     F9 5961   4.379   4.791   1.621 -0.0158 -0.1040 -0.1290
    4MOL    C44 5962   5.003   3.869   1.644 -0.5113  0.1824 -0.2081
    4MOL    C45 5963   5.085   3.927   1.725  0.5961 -0.1482  0.3602
    4MOL    C46 5964   5.220   3.874   1.764  0.0850 -0.4895 -0.2493
    4MOL    F10 5965   5.309   3.901   1.668 -0.2766 -0.4433  0.2836
    4MOL    F11 5966   5.256   3.908   1.889  0.3788 -0.1063  0.0652
    4MOL     H4 5967   5.005   3.768   1.600 -1.3864  0.2376 -0.8110
    4MOL     H5 5968   4.876   4.137   1.411 -0.1581  1.0482 -0.8950
    4MOL     H6 5969   4.760   4.090   1.197  1.6747 -1.2756  1.1422
    4MOL     H7 5970   4.773   3.739   1.549  2.9568  0.5438  1.0162
    4MOL     H8 5971   4.656   3.701   1.336  0.5851  3.5931  1.9588
    4MOL     H9 5972   4.268   3.884   0.950  0.2232  0.1764  2.0163
    4MOL    H10 5973   4.484   3.655   0.629  0.2010 -0.2837  0.4019
    4MOL    H11 5974   4.691   3.682   0.768  1.4487 -0.5228 -0.2766
    4MOL    H12 5975   4.052   3.796   0.469  0.4377 -1.0750 -0.8106
    4MOL    H13 5976   4.412   3.955   0.635  0.9988  1.7762 -0.9490
    4MOL    H14 5977   4.088   3.903   0.263 -0.5877 -0.3747 -1.3815
    4MOL     O4 5978   4.600   4.123   0.433 -0.0382 -0.6840 -0.7914
    4MOL    H15 5979   4.979   4.312   1.805  0.9488  1.0037 -1.9295
    4MOL    H16 5980   4.818   4.470   1.861  0.8164  1.5478  0.1471
    4MOL    H17 5981   4.646   4.065   1.645  1.3597 -0.2274 -3.4585
    4MOL    H18 5982   4.632   4.163   2.210  2.0128  3.2340  0.1730
    4MOL    H19 5983   4.648   4.358   2.054  0.3835  0.0100 -3.4524
    4MOL    H20 5984   4.207   4.137   2.131 -0.1865 -1.0638 -0.8683
    4MOL    H21 5985   4.224   4.337   1.987  1.7706  0.9030 -3.7371
    4MOL    H22 5986   4.271   4.572   1.943 -0.7296  0.1006  0.1756
    4MOL    H23 5987   4.496   4.248   1.690 -1.9513  1.6535  1.9238
    4MOL    F12 5988   5.204   3.741   1.781  0.5654  0.2116 -0.2711
    4MOL    C47 5989   5.165   4.160   1.729  0.1087  0.6169  0.4603
    4MOL    H24 5990   5.254   4.123   1.674  1.5882  0.3688  0.6748
    4MOL    H25 5991   5.199   4.180   1.831  0.4527 -0.2954 -0.7634
    4MOL    H26 5992   5.131   4.252   1.681  0.8517 -0.4824  0.2177
    4MOL     N1 5993   4.975   3.766   0.306 -0.5294  0.2206  0.3705
    4MOL     N2 5994   5.207   3.756   0.353  0.2253 -0.2748 -0.2296
    4MOL     C1 5995   5.107   3.826   0.282 -0.0606 -0.0169  0.0373
    4MOL     C2 5996   5.341   3.731   0.313 -0.1898  0.3314  0.3527
    4MOL     C3 5997   5.392   3.793   0.197 -0.5958  0.1985  0.0672
    4MOL     C4 5998   5.509   3.743   0.138  1.0818 -0.6812 -0.4223
    4MOL     C5 5999   5.575   3.630   0.186  0.0432 -0.9861  0.2733
    4MOL     C6 6000   5.528   3.567   0.302 -0.3784  0.4895 -0.1695
    4MOL     C7 6001   5.407   3.620   0.364 -0.5798  0.4812 -0.1423
    4MOL     N3 6002   5.688   3.579   0.117 -0.3142  0.0915 -0.3045
    4MOL     C8 6003   5.688   3.445   0.069 -0.2779  0.6554 -0.4485
    4MOL     C9 6004   5.783   3.443  -0.038  0.0494 -0.2373 -0.8895
    4MOL    C10 6005   5.835   3.571  -0.055 -0.7724 -0.3431  0.0572
    4MOL    C11 6006   5.778   3.657   0.046 -0.1878  0.3600 -0.7272
    4MOL     O1 6007   5.798   3.775   0.055 -0.4294  0.4548  0.0717
    4MOL    C12 6008   5.808   3.346  -0.127 -0.3422 -0.4513  0.0332
    4MOL    C13 6009   5.893   3.374  -0.240  0.0079  0.5071  0.2941
    4MOL    C14 6010   5.946   3.501  -0.257 -1.1400 -0.2439  0.8266
    4MOL    C15 6011   5.916   3.600  -0.158 -0.0107 -0.3689  0.0347
    4MOL    C16 6012   6.091   3.268  -0.350 -0.3970 -0.1284 -0.0771
    4MOL    C17 6013   6.163   3.298  -0.472  0.0831 -0.0427  0.7744
    4MOL    C18 6014   6.301   3.314  -0.475 -0.4337 -0.5524  1.1380
    4MOL    C19 6015   6.168   3.256  -0.232  1.0051 -0.5531 -1.2571
    4MOL    C20 6016   6.374   3.310  -0.354 -0.2713 -0.2679  0.2534
    4MOL    C21 6017   6.307   3.274  -0.236 -0.8970 -0.0590  0.2576
    4MOL    C22 6018   5.937   3.261  -0.343 -0.0437 -0.3815 -0.0797
    4MOL    C23 6019   5.889   3.115  -0.297  0.3157 -0.3442  0.0954
    4MOL     F1 6020   5.946   3.015  -0.369 -0.5818 -0.1710  0.2835
    4MOL     F2 6021   5.753   3.106  -0.310 -0.6710 -0.2290  0.1081
    4MOL     F3 6022   5.924   3.099  -0.168  0.1586  0.0531 -0.1853
    4MOL    C24 6023   5.866   3.296  -0.473  0.6629 -0.2914  0.1035
    4MOL     F4 6024   5.733   3.303  -0.441 -0.0228  0.3359 -0.4655
    4MOL     F5 6025   5.880   3.207  -0.578 -0.2467 -0.1940 -0.5004
    4MOL     F6 6026   5.895   3.418  -0.519  0.6208 -0.5212 -0.1282
    4MOL     O2 6027   5.618   3.352   0.100  0.6520 -0.4049  0.4997
    4MOL    C25 6028   6.391   3.358  -0.584 -0.5083 -0.4377 -0.1261
    4MOL     N4 6029   6.511   3.386  -0.514  0.5268  0.8242  0.0241
    4MOL    C26 6030   6.510   3.350  -0.383  0.6458  0.2678 -0.1388
    4MOL     O3 6031   6.594   3.366  -0.295  0.2331 -0.5484 -0.3461
    4MOL    C27 6032   5.122   3.933   0.192 -0.0696 -0.5952  0.3540
    4MOL    C28 6033   5.130   3.907   0.052  0.0643 -0.3603 -0.1679
    4MOL    C29 6034   5.103   4.070   0.240  0.4127  0.2095 -0.5379
    4MOL    C30 6035   5.129   4.009  -0.040 -0.4169 -0.3378 -0.2143
    4MOL    C31 6036   5.081   4.167   0.138  0.0528  0.3403 -0.2981
    4MOL    C32 6037   5.092   4.138   0.001 -0.6706 -0.6302  0.2960
    4MOL    C33 6038   5.046   4.232  -0.093 -0.3793  0.0718  0.0594
    4MOL     N5 6039   4.905   4.265  -0.098  0.0342  0.0862 -0.4839
    4MOL     N6 6040   5.111   4.288  -0.210 -0.1696 -0.2249 -0.2587
    4MOL    C34 6041   4.896   4.361  -0.201  0.7751 -0.7469  1.1654
    4MOL    C35 6042   5.014   4.368  -0.267 -0.3067  0.1680  0.5561
    4MOL    C36 6043   5.252   4.311  -0.209  0.7557  0.7062  0.2858
    4MOL     H1 6044   5.293   4.316  -0.316  1.0484 -1.0972  0.9818
    4MOL     H2 6045   5.300   4.223  -0.168 -1.6720  1.1083  0.9385
    4MOL     H3 6046   5.290   4.401  -0.162  0.8913 -0.2355 -0.3634
    4MOL    C37 6047   4.801   4.212  -0.014 -0.3018 -0.2872 -0.1854
    4MOL    C38 6048   4.788   4.075   0.037 -0.1577 -0.3548  0.0884
    4MOL    C39 6049   4.671   4.040   0.108  0.0782  0.0421  0.2614
    4MOL    C40 6050   4.575   4.134   0.146  0.5780 -0.1641  0.6870
    4MOL    C41 6051   4.594   4.271   0.106  0.0820 -0.0445  0.0630
    4MOL    C42 6052   4.705   4.309   0.026 -0.3827 -0.1704  0.0403
    4MOL    C43 6053   5.035   4.444  -0.397  0.6586  0.0910  0.0777
    4MOL     F7 6054   5.149   4.403  -0.458  0.0242  0.1044 -0.1055
    4MOL     F8 6055   5.043   4.578  -0.376  0.3062  0.4802 -0.2754
    4MOL     F9 6056   4.930   4.422  -0.481 -0.4220  0.5223 -0.0786
    4MOL    C44 6057   5.137   3.671   0.442  0.2673  0.1863 -0.2438
    4MOL    C45 6058   5.010   3.672   0.410 -0.7620 -0.7571 -0.4639
    4MOL    C46 6059   4.897   3.592   0.483  0.3861 -0.2435 -0.1756
    4MOL    F10 6060   4.957   3.516   0.575  0.1290  0.1347 -0.0390
    4MOL    F11 6061   4.811   3.684   0.531  0.0931 -0.4790 -0.0541
    4MOL     H4 6062   5.181   3.602   0.510 -0.9195 -0.5611 -0.6971
    4MOL     H5 6063   5.346   3.880   0.147  1.1878  1.1132 -3.0515
    4MOL     H6 6064   5.537   3.782   0.041  0.7250  2.0328  0.5775
    4MOL     H7 6065   5.380   3.588   0.461  1.0675  1.3362  0.1961
    4MOL     H8 6066   5.563   3.475   0.339  0.3881 -0.2404  2.8212
    4MOL     H9 6067   5.762   3.252  -0.108 -1.6306 -1.0203 -1.3280
    4MOL    H10 6068   6.016   3.517  -0.338  0.4575  0.3031  0.5004
    4MOL    H11 6069   5.959   3.700  -0.168  2.3502  1.8261 -0.8663
    4MOL    H12 6070   6.125   3.250  -0.131 -0.1184 -1.6466  1.6097
    4MOL    H13 6071   6.112   3.304  -0.567  1.0723  0.2469  0.5001
    4MOL    H14 6072   6.365   3.270  -0.144 -1.0372  1.8930  2.5220
    4MOL     O4 6073   6.369   3.376  -0.699  0.1104  0.5330  0.5246
    4MOL    H15 6074   5.138   3.805   0.015  3.7538  1.3578 -1.9462
    4MOL    H16 6075   5.139   3.994  -0.144  2.4991 -1.1657  1.3735
    4MOL    H17 6076   5.085   4.098   0.346 -1.6515  1.7912  0.4443
    4MOL    H18 6077   4.661   3.938   0.150  3.7830 -1.1623  2.0469
    4MOL    H19 6078   4.872   4.004   0.026 -0.3902  3.2702 -3.4047
    4MOL    H20 6079   4.515   4.344   0.129 -0.2159 -2.5395  2.0500
    4MOL    H21 6080   4.710   4.417   0.005  1.9381  0.3926  0.9791
    4MOL    H22 6081   4.804   4.408  -0.232 -0.1531  1.5529  0.0268
    4MOL    H23 6082   5.051   4.267   0.169  0.7152  1.5739  2.0497
    4MOL    F12 6083   4.832   3.511   0.408  0.0920  0.0580 -0.1427
    4MOL    C47 6084   4.908   3.722   0.188  0.0890 -0.2837 -0.1538
    4MOL    H24 6085   4.847   3.802   0.146 -2.0123  1.7958  1.8890
    4MOL    H25 6086   4.832   3.636   0.209 -1.2705  0.3574 -0.1712
    4MOL    H26 6087   4.990   3.697   0.115 -0.6445 -2.1367  1.1215
    4MOL     N1 6088   6.655   3.356   0.064 -0.7956 -0.6789 -0.4845
    4MOL     N2 6089   6.673   3.572   0.119  0.1915 -0.2336 -0.0472
    4MOL     C1 6090   6.695   3.484   0.014 -0.0026  0.5221 -0.1604
    4MOL     C2 6091   6.690   3.708   0.106  0.3718  1.0979  0.5830
    4MOL     C3 6092   6.811   3.755   0.052 -0.1658  0.6315 -0.0134
    4MOL     C4 6093   6.826   3.895   0.021 -0.0616 -0.4706  0.2515
    4MOL     C5 6094   6.712   3.983   0.041  0.1535  1.0168  0.0417
    4MOL     C6 6095   6.601   3.931   0.111  0.6460  0.5061 -0.6657
    4MOL     C7 6096   6.590   3.797   0.146 -0.4233  0.0251  0.0274
    4MOL     N3 6097   6.716   4.117   0.015  0.8207 -0.0734 -0.4939
    4MOL     C8 6098   6.680   4.209   0.105 -0.4409 -0.2870  0.7304
    4MOL     C9 6099   6.729   4.340   0.056 -0.0122 -0.2095  0.3607
    4MOL    C10 6100   6.781   4.313  -0.067 -0.1618 -0.4178  0.4796
    4MOL    C11 6101   6.777   4.172  -0.099 -0.0116 -0.3990  0.3179
    4MOL     O1 6102   6.817   4.109  -0.199 -0.6642  0.1984 -0.5237
    4MOL    C12 6103   6.746   4.455   0.131 -0.0391  0.0926  0.2321
    4MOL    C13 6104   6.806   4.566   0.074  0.3839  0.2969  0.5712
    4MOL    C14 6105   6.849   4.553  -0.062 -0.2066 -0.1142  0.0413
    4MOL    C15 6106   6.851   4.426  -0.124 -0.2169  0.4931 -0.0104
    4MOL    C16 6107   6.936   4.600   0.285  0.4642  0.6213 -0.1060
    4MOL    C17 6108   7.048   4.520   0.243  0.1529 -0.0341  0.6401
    4MOL    C18 6109   7.091   4.423   0.332 -0.0997 -0.2144 -0.2000
    4MOL    C19 6110   6.891   4.585   0.421  0.3077  0.6349 -0.1001
    4MOL    C20 6111   7.046   4.405   0.460  0.1245 -0.1471 -0.4020
    4MOL    C21 6112   6.948   4.487   0.508 -0.6993 -0.2493  0.0276
    4MOL    C22 6113   6.857   4.676   0.174 -0.7460  1.0493 -0.2022
    4MOL    C23 6114   6.942   4.782   0.099 -0.0592 -0.0503 -0.2341
    4MOL     F1 6115   6.993   4.871   0.189  0.0619 -1.0162 -0.1866
    4MOL     F2 6116   6.878   4.854   0.004 -0.3194  0.2546  0.2806
    4MOL     F3 6117   7.058   4.737   0.047  0.0594  0.0201  0.0998
    4MOL    C24 6118   6.728   4.753   0.221 -0.7136 -0.0444 -0.2155
    4MOL     F4 6119   6.654   4.783   0.115  0.2614  0.7599 -0.5173
    4MOL     F5 6120   6.753   4.862   0.303  0.5051  0.0320 -0.1923
    4MOL     F6 6121   6.640   4.682   0.294 -0.2174  0.1752 -0.4387
    4MOL     O2 6122   6.635   4.187   0.213  0.6354  0.0773 -0.5491
    4MOL    C25 6123   7.197   4.322   0.313  0.5284  0.0822  0.1207
    4MOL     N4 6124   7.198   4.240   0.422  0.1281  0.3468  0.1374
    4MOL    C26 6125   7.115   4.289   0.518 -0.5072  0.1748 -0.6149
    4MOL     O3 6126   7.114   4.250   0.631 -0.0877 -0.1125 -0.1487
    4MOL    C27 6127   6.728   3.522  -0.114  0.1549 -0.5362  0.6484
    4MOL    C28 6128   6.848   3.481  -0.166 -0.0931  0.1268 -0.1247
    4MOL    C29 6129   6.662   3.629  -0.175 -0.3382 -0.2124  0.6510
    4MOL    C30 6130   6.913   3.562  -0.260 -0.5546  0.0960 -0.7255
    4MOL    C31 6131   6.724   3.702  -0.278  0.0701 -0.1801 -0.4283
    4MOL    C32 6132   6.851   3.669  -0.321 -0.0139 -0.3850 -0.3152
    4MOL    C33 6133   6.916   3.750  -0.415  0.3262  0.7209  0.7277
    4MOL     N5 6134   6.928   3.717  -0.546 -0.4343  0.5352 -0.7743
    4MOL     N6 6135   7.007   3.851  -0.391  0.3945  0.6108 -0.6581
    4MOL    C34 6136   7.035   3.789  -0.595 -0.6853 -0.0792  0.4508
    4MOL    C35 6137   7.083   3.870  -0.504  0.1118  1.0757 -0.1265
    4MOL    C36 6138   7.040   3.892  -0.256  0.0502  0.0341 -0.4435
    4MOL     H1 6139   6.945   3.937  -0.211 -2.3451  0.2932  1.6973
    4MOL     H2 6140   7.120   3.968  -0.265  1.4078  1.8420 -2.0585
    4MOL     H3 6141   7.083   3.813  -0.192 -1.3035 -0.4450  1.8868
    4MOL    C37 6142   6.845   3.623  -0.608 -0.0924  0.1549 -0.3324
    4MOL    C38 6143   6.862   3.486  -0.572  1.0334  0.4177  0.3982
    4MOL    C39 6144   6.751   3.402  -0.554  0.8089 -0.3659  0.4758
    4MOL    C40 6145   6.620   3.458  -0.576  0.3559  0.1818 -0.3091
    4MOL    C41 6146   6.602   3.587  -0.619 -0.1836 -0.4929  0.0461
    4MOL    C42 6147   6.714   3.669  -0.639  0.9771 -0.5322 -0.1636
    4MOL    C43 6148   7.200   3.966  -0.505 -0.3181 -0.9983 -0.0115
    4MOL     F7 6149   7.273   3.977  -0.625  0.3045  0.2802 -0.0737
    4MOL     F8 6150   7.286   3.940  -0.406 -0.3469 -0.2253  0.3889
    4MOL     F9 6151   7.152   4.087  -0.469 -0.1661  0.5718 -0.3560
    4MOL    C44 6152   6.618   3.503   0.224  0.2292  0.1016  0.0068
    4MOL    C45 6153   6.599   3.377   0.192 -0.1923  0.1897  1.0173
    4MOL    C46 6154   6.539   3.270   0.288 -0.5027 -0.3320 -0.1795
    4MOL    F10 6155   6.538   3.148   0.228  0.5330  0.3272  0.0640
    4MOL    F11 6156   6.603   3.266   0.407 -0.1904  0.0660  0.3945
    4MOL     H4 6157   6.604   3.553   0.321  1.2837 -1.1709 -0.5255
    4MOL     H5 6158   6.897   3.690   0.046 -2.0795  3.7477  1.2131
    4MOL     H6 6159   6.924   3.931  -0.009  0.5254  0.2304 -0.9293
    4MOL     H7 6160   6.492   3.766   0.191  1.2975  0.6269  0.9308
    4MOL     H8 6161   6.507   3.987   0.131 -1.3657  1.8534  0.2247
    4MOL     H9 6162   6.728   4.446   0.241 -2.2115 -1.5171  1.1008
    4MOL    H10 6163   6.896   4.639  -0.113  2.4371 -0.4811  2.8725
    4MOL    H11 6164   6.891   4.429  -0.224  1.5868 -2.6222 -2.7168
    4MOL    H12 6165   6.812   4.641   0.460  3.4533 -1.5855  1.8321
    4MOL    H13 6166   7.077   4.518   0.136 -0.0960  0.4487  1.3196
    4MOL    H14 6167   6.902   4.472   0.606  0.3528 -2.8161 -1.7104
    4MOL     O4 6168   7.249   4.300   0.204  0.7088 -0.4111  0.5766
    4MOL    H15 6169   6.903   3.400  -0.117  0.1716 -1.0663  0.6358
    4MOL    H16 6170   7.015   3.541  -0.280  0.2265 -1.1203 -1.2865
    4MOL    H17 6171   6.564   3.664  -0.147  1.1557  1.1753  0.0092
    4MOL    H18 6172   6.757   3.301  -0.519 -0.4502  0.4424  0.0532
    4MOL    H19 6173   6.971   3.450  -0.545  0.4480  0.8061  0.0189
    4MOL    H20 6174   6.502   3.632  -0.622 -0.5015 -1.0027  0.1685
    4MOL    H21 6175   6.700   3.776  -0.647 -1.9874 -1.3150  1.0291
    4MOL    H22 6176   7.074   3.774  -0.695  0.7463  3.5414  0.8973
    4MOL    H23 6177   6.673   3.791  -0.327 -1.2933 -0.4527  0.8153
    4MOL    F12 6178   6.404   3.302   0.305  0.2399  0.1688 -0.0743
    4MOL    C47 6179   6.652   3.238  -0.016  0.2718  0.1446  0.0769
    4MOL    H24 6180   6.560   3.238  -0.079 -2.1352  2.1868  0.4238
    4MOL    H25 6181   6.649   3.150   0.055 -1.1031  1.1526 -0.0339
    4MOL    H26 6182   6.746   3.233  -0.084  3.3478  1.1521 -1.9050
    4MOL     N1 6183   7.228   4.485   0.789  0.2243  0.0078 -0.7101
    4MOL     N2 6184   7.270   4.373   0.988 -0.1124  0.1648 -0.4224
    4MOL     C1 6185   7.307   4.385   0.852  0.5202 -0.2488 -1.5338
    4MOL     C2 6186   7.331   4.293   1.079 -1.0494  0.6540 -0.4005
    4MOL     C3 6187   7.282   4.165   1.090  0.1823 -0.3804 -0.4293
    4MOL     C4 6188   7.354   4.075   1.176 -0.3097 -0.5740 -0.6946
    4MOL     C5 6189   7.473   4.119   1.243  1.1049  0.1553  1.0395
    4MOL     C6 6190   7.518   4.249   1.225 -0.1337 -0.0277 -0.7412
    4MOL     C7 6191   7.447   4.338   1.141 -0.4203 -0.4010  0.7167
    4MOL     N3 6192   7.537   4.042   1.338  0.3856  0.1819 -0.1337
    4MOL     C8 6193   7.541   4.081   1.466 -0.0888 -0.4027  0.0131
    4MOL     C9 6194   7.610   3.967   1.539  0.2754  0.4619 -0.1654
    4MOL    C10 6195   7.643   3.871   1.446  0.1820 -0.3279  0.6921
    4MOL    C11 6196   7.605   3.923   1.310  0.4978  0.1442 -0.0819
    4MOL     O1 6197   7.632   3.879   1.200  0.1747 -0.1589  0.3949
    4MOL    C12 6198   7.655   3.951   1.675 -0.3798  0.4270 -0.8744
    4MOL    C13 6199   7.721   3.830   1.719 -0.5776 -0.0191 -0.2644
    4MOL    C14 6200   7.744   3.735   1.618  0.2828 -0.9623 -0.0709
    4MOL    C15 6201   7.713   3.754   1.475 -0.5742  0.4410 -0.3432
    4MOL    C16 6202   7.802   3.662   1.899 -0.6214  0.2627  0.5292
    4MOL    C17 6203   7.911   3.603   1.837 -0.0955 -1.0791  0.9390
    4MOL    C18 6204   7.948   3.474   1.861 -0.8156 -0.7170 -0.0298
    4MOL    C19 6205   7.710   3.572   1.963 -0.2481  0.0599  0.4351
    4MOL    C20 6206   7.866   3.398   1.942  0.2081  0.5412  0.8190
    4MOL    C21 6207   7.740   3.441   1.989  0.1341  0.0861 -0.3213
    4MOL    C22 6208   7.757   3.806   1.865 -0.4057  0.2017  0.2615
    4MOL    C23 6209   7.877   3.899   1.908  0.9906 -0.4392 -0.3667
    4MOL     F1 6210   7.864   4.033   1.875 -0.0650 -0.3137  0.7255
    4MOL     F2 6211   7.985   3.868   1.835  0.7154  0.3180 -0.3454
    4MOL     F3 6212   7.914   3.884   2.031  0.4435 -0.2048 -0.4514
    4MOL    C24 6213   7.633   3.852   1.956 -0.4049  0.0930  0.5457
    4MOL     F4 6214   7.521   3.802   1.896 -0.3094  0.1802  0.6809
    4MOL     F5 6215   7.611   3.984   1.972 -0.1374  0.0374  0.0259
    4MOL     F6 6216   7.630   3.811   2.086 -0.2651 -0.0972  0.0756
    4MOL     O2 6217   7.501   4.186   1.508 -0.0587  0.1486 -0.1110
    4MOL    C25 6218   8.070   3.394   1.841  0.0182  0.3360 -0.5514
    4MOL     N4 6219   8.052   3.269   1.897 -0.4626 -0.6770 -0.0422
    4MOL    C26 6220   7.929   3.269   1.968 -0.3859  0.9571 -0.7763
    4MOL     O3 6221   7.883   3.178   2.043  0.0376 -0.4683 -0.3469
    4MOL    C27 6222   7.370   4.275   0.802  0.5446 -0.5118 -0.0355
    4MOL    C28 6223   7.300   4.155   0.801 -0.0110 -0.5783  0.2718
    4MOL    C29 6224   7.510   4.274   0.774 -0.2066 -0.0484  0.4241
    4MOL    C30 6225   7.364   4.034   0.786 -0.5965  0.7617 -0.4413
    4MOL    C31 6226   7.574   4.150   0.746 -0.3662 -0.7088  0.0313
    4MOL    C32 6227   7.499   4.031   0.748 -0.3898 -0.7256  0.3395
    4MOL    C33 6228   7.559   3.913   0.716  0.7415  0.0696 -0.5428
    4MOL     N5 6229   7.540   3.863   0.590 -0.4793 -0.0858 -0.4412
    4MOL     N6 6230   7.631   3.828   0.804 -0.1795 -0.2076  0.2002
    4MOL    C34 6231   7.630   3.755   0.588  0.0063 -0.2531 -0.3896
    4MOL    C35 6232   7.685   3.737   0.707 -0.0199 -0.1083  0.2010
    4MOL    C36 6233   7.717   3.894   0.900 -0.5936 -0.3715 -0.2305
    4MOL     H1 6234   7.747   3.832   0.990 -0.8760 -0.2504 -0.0624
    4MOL     H2 6235   7.659   3.976   0.953  1.6564  1.3123  0.1518
    4MOL     H3 6236   7.798   3.954   0.851  0.1681 -0.3159  0.5146
    4MOL    C37 6237   7.459   3.925   0.503 -0.5551 -0.0196  0.7525
    4MOL    C38 6238   7.322   3.909   0.510  0.1193 -0.5610 -0.2598
    4MOL    C39 6239   7.236   4.013   0.490 -0.7554 -0.0953 -0.1151
    4MOL    C40 6240   7.287   4.131   0.436  0.0222 -0.3560 -0.0784
    4MOL    C41 6241   7.422   4.143   0.402  0.1217  0.4444  0.2553
    4MOL    C42 6242   7.512   4.039   0.432 -0.4649  0.0939 -0.1250
    4MOL    C43 6243   7.778   3.628   0.744 -0.9493  0.4992 -0.1814
    4MOL     F7 6244   7.855   3.672   0.853 -0.0470 -0.3648 -0.1615
    4MOL     F8 6245   7.860   3.595   0.643  0.2588  0.8366 -0.1013
    4MOL     F9 6246   7.720   3.509   0.783 -0.2235 -0.1490  0.0534
    4MOL    C44 6247   7.169   4.473   1.010 -0.3641 -0.3324 -0.0601
    4MOL    C45 6248   7.142   4.533   0.895  0.4100  0.0494 -0.0811
    4MOL    C46 6249   7.053   4.653   0.873 -0.1744  0.3476 -0.3291
    4MOL    F10 6250   7.117   4.771   0.847  0.3409 -0.0819 -0.1614
    4MOL    F11 6251   6.954   4.635   0.779 -0.4867 -0.2040  0.3930
    4MOL     H4 6252   7.120   4.484   1.105  1.0945  0.2865  1.5489
    4MOL     H5 6253   7.204   4.137   1.019  0.8685 -0.6128 -0.0352
    4MOL     H6 6254   7.335   3.973   1.178 -2.2310  1.7683  0.1625
    4MOL     H7 6255   7.486   4.430   1.123  1.5915  0.6191  1.6883
    4MOL     H8 6256   7.614   4.271   1.277  2.2503 -0.6735  2.2621
    4MOL     H9 6257   7.633   4.030   1.742 -1.2667  0.5884  0.8612
    4MOL    H10 6258   7.794   3.641   1.635 -1.6503 -0.5263 -1.6738
    4MOL    H11 6259   7.741   3.682   1.403 -2.3203 -1.5403 -1.0415
    4MOL    H12 6260   7.616   3.598   2.003 -0.9483 -2.2803  0.6098
    4MOL    H13 6261   7.986   3.649   1.771 -0.3727 -2.1237  1.9495
    4MOL    H14 6262   7.662   3.376   2.034 -0.0337 -0.5690 -1.5091
    4MOL     O4 6263   8.164   3.419   1.773  0.0195 -0.3320 -0.2280
    4MOL    H15 6264   7.196   4.152   0.831  1.1102 -1.3911  1.5477
    4MOL    H16 6265   7.303   3.940   0.790  0.1155 -0.2225 -0.7306
    4MOL    H17 6266   7.558   4.368   0.779 -2.8594 -0.1668  0.2692
    4MOL    H18 6267   7.131   4.005   0.524  1.5429 -0.3811  1.7094
    4MOL    H19 6268   7.276   3.821   0.554 -0.5330 -1.0194  1.5855
    4MOL    H20 6269   7.446   4.242   0.373 -0.1713 -1.5817  1.2508
    4MOL    H21 6270   7.618   4.045   0.412 -1.8759  0.5057  2.0376
    4MOL    H22 6271   7.653   3.699   0.496  1.1515 -0.9682 -0.9864
    4MOL    H23 6272   7.676   4.151   0.726 -0.1671  0.6550 -0.0693
    4MOL    F12 6273   6.993   4.673   0.989 -0.1327  0.6355 -0.3441
    4MOL    C47 6274   7.282   4.558   0.682  0.1164  0.0218  0.1349
    4MOL    H24 6275   7.391   4.567   0.690  3.6671  1.5367  0.9316
    4MOL    H25 6276   7.243   4.663   0.679 -1.7656  0.8627  0.6230
    4MOL    H26 6277   7.255   4.503   0.588  2.0039  2.0293 -2.0302
    4MOL     N1 6278   7.837   2.280   1.581 -0.1705 -0.0667 -0.9909
    4MOL     N2 6279   7.734   2.475   1.525 -0.4307  0.3432 -0.1260
    4MOL     C1 6280   7.855   2.418   1.579  0.3343 -0.0929 -0.2793
    4MOL     C2 6281   7.694   2.606   1.544  0.3596 -0.5040 -0.2125
    4MOL     C3 6282   7.722   2.681   1.659  0.4086  0.3205  0.2481
    4MOL     C4 6283   7.648   2.800   1.691 -0.2260  0.7446  0.5625
    4MOL     C5 6284   7.548   2.840   1.603 -0.6199  0.6217  0.0621
    4MOL     C6 6285   7.527   2.765   1.484  0.4495 -0.3501 -0.3686
    4MOL     C7 6286   7.600   2.654   1.455  0.2459 -0.6926  0.3727
    4MOL     N3 6287   7.471   2.952   1.639  0.2660 -0.0891 -0.8309
    4MOL     C8 6288   7.526   3.073   1.664 -0.8303  0.1928  0.1850
    4MOL     C9 6289   7.418   3.162   1.698 -0.0084  0.7262 -0.0385
    4MOL    C10 6290   7.304   3.081   1.706  0.1151 -0.3379  0.8310
    4MOL    C11 6291   7.336   2.941   1.674  0.5349 -0.4397  0.0501
    4MOL     O1 6292   7.261   2.840   1.682  0.5460 -0.3493 -0.0429
    4MOL    C12 6293   7.414   3.301   1.703  0.3349  0.3387 -0.2883
    4MOL    C13 6294   7.293   3.370   1.723 -0.5768 -0.3020 -0.4061
    4MOL    C14 6295   7.179   3.292   1.745 -0.3228 -0.2130  0.3625
    4MOL    C15 6296   7.181   3.147   1.740 -0.3126 -0.2958  0.3522
    4MOL    C16 6297   7.169   3.557   1.609  0.1581 -0.6673 -0.3125
    4MOL    C17 6298   7.101   3.680   1.613  0.1207  0.0341 -0.2361
    4MOL    C18 6299   7.002   3.706   1.518  0.0309  0.0092  0.4772
    4MOL    C19 6300   7.139   3.466   1.506  0.3268  0.4880  0.7923
    4MOL    C20 6301   6.973   3.618   1.417 -0.2370  0.4988  0.0778
    4MOL    C21 6302   7.047   3.497   1.396 -0.7170 -0.3551 -0.2991
    4MOL    C22 6303   7.281   3.522   1.709  0.5403 -0.1420  0.2755
    4MOL    C23 6304   7.244   3.582   1.851  0.2371  0.3599  0.8275
    4MOL     F1 6305   7.329   3.535   1.951  0.3877 -0.2645  0.1897
    4MOL     F2 6306   7.116   3.554   1.891 -0.0741 -0.4789 -0.6589
    4MOL     F3 6307   7.267   3.719   1.870 -0.6098  0.3221 -0.2320
    4MOL    C24 6308   7.410   3.587   1.657 -0.4515  0.1077  0.6583
    4MOL     F4 6309   7.441   3.529   1.539  0.8442  0.1360  0.7091
    4MOL     F5 6310   7.519   3.577   1.743  0.4861  0.5055  0.3880
    4MOL     F6 6311   7.405   3.717   1.623  0.1643  0.0716 -0.2078
    4MOL     O2 6312   7.640   3.110   1.664 -0.0617 -0.3488 -0.3801
    4MOL    C25 6313   6.925   3.828   1.485  0.3372 -0.0026 -0.0426
    4MOL     N4 6314   6.847   3.805   1.376 -0.0715  0.5727  0.4412
    4MOL    C26 6315   6.876   3.681   1.322  0.0024  0.3397 -0.2817
    4MOL     O3 6316   6.846   3.658   1.208 -0.1172 -0.7799 -0.1983
    4MOL    C27 6317   7.961   2.484   1.640 -0.5854 -0.4148 -0.1549
    4MOL    C28 6318   8.038   2.575   1.569  0.8359 -0.0096  0.7796
    4MOL    C29 6319   7.988   2.474   1.776 -0.7379  0.2814 -0.4728
    4MOL    C30 6320   8.139   2.643   1.628 -0.5249  0.1677  0.2983
    4MOL    C31 6321   8.101   2.533   1.835 -0.8950  0.1607 -0.2377
    4MOL    C32 6322   8.184   2.620   1.758 -0.3392  0.1430  0.1081
    4MOL    C33 6323   8.299   2.678   1.806  0.9397 -0.6457  0.1313
    4MOL     N5 6324   8.347   2.812   1.788 -0.4811  0.3507  0.3234
    4MOL     N6 6325   8.407   2.601   1.832  0.3229  0.0012  0.2148
    4MOL    C34 6326   8.483   2.798   1.772  0.1038  0.1017 -0.4471
    4MOL    C35 6327   8.520   2.675   1.785  0.3747  0.7251 -0.2394
    4MOL    C36 6328   8.424   2.532   1.962 -0.8006  0.2722  0.5328
    4MOL     H1 6329   8.508   2.460   1.962 -0.0987 -0.6484 -1.6190
    4MOL     H2 6330   8.328   2.480   1.987  0.5338 -0.4986 -0.8638
    4MOL     H3 6331   8.431   2.610   2.036  1.2275  0.3122  0.5945
    4MOL    C37 6332   8.276   2.931   1.797 -0.4792 -0.7866 -0.0500
    4MOL    C38 6333   8.143   2.947   1.755 -0.2989  0.2189 -0.5629
    4MOL    C39 6334   8.073   3.058   1.784  0.2199 -0.2626 -0.1411
    4MOL    C40 6335   8.128   3.151   1.870  0.8953  0.0077  0.0987
    4MOL    C41 6336   8.262   3.149   1.910  0.4119  0.4064  0.0546
    4MOL    C42 6337   8.336   3.032   1.873  0.0582  0.5786 -0.2887
    4MOL    C43 6338   8.647   2.609   1.748  0.0574  0.6375  0.3994
    4MOL     F7 6339   8.702   2.535   1.849  0.5473 -0.4497 -0.4972
    4MOL     F8 6340   8.731   2.703   1.702 -0.3563 -0.1583 -0.2872
    4MOL     F9 6341   8.629   2.526   1.642  0.5383 -0.2829 -0.2845
    4MOL    C44 6342   7.644   2.373   1.502 -0.7378  0.1696 -0.2934
    4MOL    C45 6343   7.707   2.258   1.540 -0.5929  0.0164  0.4150
    4MOL    C46 6344   7.648   2.117   1.556 -0.6727 -0.4936  0.0446
    4MOL    F10 6345   7.662   2.076   1.687 -0.1452 -0.2175 -0.3856
    4MOL    F11 6346   7.516   2.099   1.515  0.0401  0.4480 -0.0505
    4MOL     H4 6347   7.550   2.379   1.447 -1.9924 -1.4516  1.9090
    4MOL     H5 6348   7.791   2.637   1.725  0.2032  1.4552 -0.4332
    4MOL     H6 6349   7.672   2.865   1.772 -0.6419  2.1678 -0.8545
    4MOL     H7 6350   7.589   2.617   1.351 -0.9711  0.0084  0.8609
    4MOL     H8 6351   7.460   2.808   1.408 -0.7267  0.5384 -0.6237
    4MOL     H9 6352   7.509   3.348   1.693  2.8941  0.2410 -0.2602
    4MOL    H10 6353   7.085   3.350   1.758  0.2360  1.8766 -3.4231
    4MOL    H11 6354   7.087   3.089   1.750 -1.4378  0.9891 -1.9604
    4MOL    H12 6355   7.180   3.368   1.499  2.1585 -0.7464  2.1902
    4MOL    H13 6356   7.136   3.750   1.688 -1.0323  1.8475  1.8850
    4MOL    H14 6357   7.020   3.432   1.313 -1.9927 -0.8462  1.7952
    4MOL     O4 6358   6.935   3.933   1.547  0.0488  0.0380 -0.2659
    4MOL    H15 6359   8.009   2.596   1.465 -0.6956 -1.6008  1.0286
    4MOL    H16 6360   8.186   2.728   1.565 -0.8861 -1.4469 -0.2024
    4MOL    H17 6361   7.926   2.418   1.845  1.1650  1.3374  0.8811
    4MOL    H18 6362   7.968   3.064   1.746 -0.0437 -0.3110  1.9270
    4MOL    H19 6363   8.097   2.871   1.703 -1.9960 -2.5253 -0.8484
    4MOL    H20 6364   8.304   3.224   1.979 -3.4296  0.1442 -0.3239
    4MOL    H21 6365   8.430   3.017   1.916 -5.5833  0.2689 -1.6901
    4MOL    H22 6366   8.542   2.884   1.739 -0.1700 -0.1192 -0.1864
    4MOL    H23 6367   8.109   2.521   1.941  0.3470 -1.6274  1.6484
    4MOL    F12 6368   7.728   2.028   1.480 -0.4651  0.2320 -0.2617
    4MOL    C47 6369   7.907   2.199   1.673 -0.2903  0.3332 -0.7641
    4MOL    H24 6370   7.910   2.101   1.640  0.5021  0.0929  1.6369
    4MOL    H25 6371   7.848   2.182   1.772 -2.3313 -2.1649 -0.3122
    4MOL    H26 6372   8.003   2.246   1.691 -3.2475 -0.0627  1.3766
    4MOL     N1 6373   6.264   4.094   1.699  0.2242  0.2416 -0.2714
    4MOL     N2 6374   6.467   4.009   1.709 -0.3619 -0.1491  0.1335
    4MOL     C1 6375   6.399   4.131   1.680  0.4125  0.6748 -0.2671
    4MOL     C2 6376   6.575   3.981   1.800  0.0916 -0.3693 -0.3492
    4MOL     C3 6377   6.707   4.021   1.763  0.3801 -0.8693  0.5513
    4MOL     C4 6378   6.812   3.995   1.845 -0.3484  0.2367 -0.6434
    4MOL     C5 6379   6.788   3.933   1.972 -0.2946 -1.1556  0.4579
    4MOL     C6 6380   6.661   3.883   2.010 -0.2817 -0.7556  0.5284
    4MOL     C7 6381   6.555   3.910   1.923 -0.1349 -0.2562 -0.5673
    4MOL     N3 6382   6.886   3.946   2.072  0.8792  0.4758  0.0106
    4MOL     C8 6383   6.854   4.017   2.184 -0.1043  0.7923 -0.2275
    4MOL     C9 6384   6.991   4.052   2.241  0.7915 -0.2904  0.8863
    4MOL    C10 6385   7.086   3.979   2.183 -0.1043  0.3101  0.4138
    4MOL    C11 6386   7.018   3.912   2.064 -0.6038  0.0318 -1.0830
    4MOL     O1 6387   7.065   3.836   1.980  0.0688  0.0920  0.5775
    4MOL    C12 6388   7.005   4.102   2.368  0.1185 -0.9134  0.3840
    4MOL    C13 6389   7.132   4.094   2.432 -0.0186 -0.0251  0.6020
    4MOL    C14 6390   7.239   4.038   2.355 -0.3679  0.5616  0.5074
    4MOL    C15 6391   7.221   3.986   2.227 -0.3297 -0.6246  1.2149
    4MOL    C16 6392   7.049   4.093   2.667 -0.6609 -0.3114  0.1995
    4MOL    C17 6393   6.926   4.148   2.713 -0.0326 -0.2283  0.2612
    4MOL    C18 6394   6.843   4.070   2.790 -0.3369 -0.5038 -0.3947
    4MOL    C19 6395   7.074   3.953   2.686 -0.0025  0.5007 -0.3097
    4MOL    C20 6396   6.871   3.940   2.816 -0.3032 -0.1436  0.5874
    4MOL    C21 6397   6.983   3.873   2.763 -0.2572  0.5623 -0.6652
    4MOL    C22 6398   7.155   4.164   2.576  0.3461  0.0896 -0.6500
    4MOL    C23 6399   7.295   4.146   2.647  0.3051  0.3598 -0.1493
    4MOL     F1 6400   7.294   4.165   2.783 -0.0418  0.5277  0.6865
    4MOL     F2 6401   7.389   4.234   2.599 -0.5516  0.1178 -0.1390
    4MOL     F3 6402   7.354   4.029   2.621  0.3860  0.0432  0.1661
    4MOL    C24 6403   7.124   4.321   2.578  0.3711 -0.2505  0.0794
    4MOL     F4 6404   7.210   4.375   2.481 -0.2209  0.1596 -0.7975
    4MOL     F5 6405   7.148   4.383   2.697 -0.1939 -0.2234 -0.3688
    4MOL     F6 6406   7.006   4.350   2.526 -0.2014 -0.3932 -0.1951
    4MOL     O2 6407   6.748   4.059   2.226  0.1785 -0.5254 -0.5967
    4MOL    C25 6408   6.713   4.103   2.866 -0.4543  0.1560 -0.4432
    4MOL     N4 6409   6.663   3.985   2.921  0.7206 -0.2747  0.2290
    4MOL    C26 6410   6.755   3.887   2.901 -0.0942  0.3924 -0.6328
    4MOL     O3 6411   6.741   3.774   2.947  0.2687  0.0587 -0.1881
    4MOL    C27 6412   6.446   4.231   1.589 -0.1576  0.4541  0.2426
    4MOL    C28 6413   6.575   4.281   1.607  0.0371 -0.1145 -0.6346
    4MOL    C29 6414   6.370   4.269   1.477  0.0638 -0.0565  0.2157
    4MOL    C30 6415   6.639   4.357   1.506  0.2604 -0.3832 -0.3249
    4MOL    C31 6416   6.432   4.347   1.377  0.3962  0.2447 -0.0309
    4MOL    C32 6417   6.567   4.391   1.394 -0.7976  0.7572 -0.3562
    4MOL    C33 6418   6.628   4.414   1.274 -0.5445  0.2919  0.3299
    4MOL     N5 6419   6.677   4.305   1.199 -0.7031 -0.1600 -0.6072
    4MOL     N6 6420   6.586   4.509   1.175 -0.2000  0.7073 -0.0502
    4MOL    C34 6421   6.661   4.338   1.061  0.4678  0.1151 -0.0269
    4MOL    C35 6422   6.615   4.463   1.046 -0.6648  0.2737 -0.0547
    4MOL    C36 6423   6.514   4.634   1.208  1.3072  0.6371  0.2002
    4MOL     H1 6424   6.407   4.604   1.233  1.9107  1.1595  0.0496
    4MOL     H2 6425   6.515   4.697   1.118  1.3372 -0.1678  1.6721
    4MOL     H3 6426   6.573   4.690   1.294 -0.2916  0.4285 -0.3725
    4MOL    C37 6427   6.707   4.179   1.244  0.2903  0.5503 -0.7542
    4MOL    C38 6428   6.624   4.100   1.332 -0.2935  0.2677  0.4508
    4MOL    C39 6429   6.670   3.975   1.376  0.8815  0.0390 -0.5911
    4MOL    C40 6430   6.788   3.922   1.321  0.4200 -0.2774  0.4365
    4MOL    C41 6431   6.864   3.991   1.227 -0.2230  0.1402  0.6329
    4MOL    C42 6432   6.826   4.120   1.197  0.1628  0.4293  0.1969
    4MOL    C43 6433   6.601   4.546   0.925 -0.3985 -0.3214  0.2838
    4MOL     F7 6434   6.475   4.577   0.898 -0.1260 -0.3323 -0.4492
    4MOL     F8 6435   6.658   4.481   0.813 -0.1030 -0.1645  0.4519
    4MOL     F9 6436   6.675   4.649   0.945 -0.6263 -0.3021  0.1171
    4MOL    C44 6437   6.378   3.904   1.685  0.3564 -0.0251 -0.8982
    4MOL    C45 6438   6.259   3.953   1.672  0.0785 -0.6180 -0.0814
    4MOL    C46 6439   6.132   3.876   1.638  0.5984  1.1185  0.0889
    4MOL    F10 6440   6.166   3.756   1.583 -0.0607 -0.0347  0.2938
    4MOL    F11 6441   6.053   3.868   1.744  0.1484  0.1388 -0.2837
    4MOL     H4 6442   6.409   3.807   1.664 -0.0456 -2.3403  0.8752
    4MOL     H5 6443   6.717   4.075   1.662  0.4810 -0.5786 -3.7445
    4MOL     H6 6444   6.912   4.025   1.822  1.5102 -2.1095 -1.5649
    4MOL     H7 6445   6.450   3.878   1.952 -1.4368  1.7437 -2.2573
    4MOL     H8 6446   6.651   3.853   2.110  2.8238 -0.1367 -1.5294
    4MOL     H9 6447   6.912   4.148   2.413 -0.4467 -1.4405 -0.2087
    4MOL    H10 6448   7.339   4.023   2.393  1.1027  2.3991  0.0812
    4MOL    H11 6449   7.304   3.961   2.165 -1.1300 -1.2250  1.2005
    4MOL    H12 6450   7.156   3.917   2.623  1.1628  0.3275 -4.4613
    4MOL    H13 6451   6.893   4.248   2.683  2.3330 -0.6667 -2.3740
    4MOL    H14 6452   6.993   3.776   2.778  2.9874  2.9494  1.1360
    4MOL     O4 6453   6.650   4.209   2.867 -0.6698 -0.0958 -0.1687
    4MOL    H15 6454   6.636   4.260   1.696  2.9451 -0.6081 -2.9237
    4MOL    H16 6455   6.740   4.397   1.524  0.5652  1.7486  0.5879
    4MOL    H17 6456   6.269   4.229   1.455 -1.5720 -1.5303  1.3582
    4MOL    H18 6457   6.603   3.917   1.448 -1.0991  1.4278  0.7112
    4MOL    H19 6458   6.533   4.126   1.364  2.5718  0.5741 -0.1822
    4MOL    H20 6459   6.954   3.946   1.184 -2.3812 -0.2507 -1.7359
    4MOL    H21 6460   6.904   4.183   1.146  1.1322  0.3048 -0.7463
    4MOL    H22 6461   6.703   4.270   0.989  1.3599 -0.6406  0.1580
    4MOL    H23 6462   6.374   4.367   1.284 -2.7633  0.2305  0.8094
    4MOL    F12 6463   6.059   3.939   1.547  0.0420 -0.3757  0.2753
    4MOL    C47 6464   6.154   4.190   1.687  0.6146  0.5206  0.6831
    4MOL    H24 6465   6.111   4.198   1.779  2.5129 -0.4403 -0.6852
    4MOL    H25 6466   6.084   4.163   1.607  0.6819 -0.0836  1.1358
    4MOL    H26 6467   6.195   4.297   1.674 -2.0059  0.4496 -1.3670
    4MOL     N1 6468   6.595   3.631   2.575 -0.9526 -0.2597 -0.8620
    4MOL     N2 6469   6.761   3.523   2.702  0.8339 -0.6101 -0.1201
    4MOL     C1 6470   6.619   3.540   2.687  0.2935  0.2720 -0.2488
    4MOL     C2 6471   6.833   3.420   2.759  0.2038  0.5362 -0.2446
    4MOL     C3 6472   6.781   3.357   2.873 -0.1841  0.2466 -0.0453
    4MOL     C4 6473   6.857   3.252   2.930  0.6600 -0.9698  0.1980
    4MOL     C5 6474   6.975   3.206   2.874  0.1140 -0.1510  0.6325
    4MOL     C6 6475   7.026   3.281   2.772 -0.3407 -0.2117 -0.2001
    4MOL     C7 6476   6.958   3.383   2.709  0.1728  0.6799 -0.0748
    4MOL     N3 6477   7.053   3.106   2.935 -0.1818  0.2222  0.1528
    4MOL     C8 6478   7.188   3.119   2.962  0.0279 -0.6998  0.2879
    4MOL     C9 6479   7.230   2.981   2.995 -0.5083  0.6989 -0.2290
    4MOL    C10 6480   7.121   2.891   2.990 -0.1919 -0.1198 -0.3524
    4MOL    C11 6481   7.002   2.979   2.953  0.3490 -0.3931  0.4468
    4MOL     O1 6482   6.883   2.956   2.941  0.0227 -0.0205 -0.2975
    4MOL    C12 6483   7.350   2.935   3.051  0.4759  0.0802  0.0271
    4MOL    C13 6484   7.361   2.800   3.096 -0.1039  0.6682  0.0080
    4MOL    C14 6485   7.249   2.713   3.074 -0.2914 -0.1908  0.2893
    4MOL    C15 6486   7.132   2.763   3.022 -0.5679 -0.1059 -0.6540
    4MOL    C16 6487   7.385   2.688   3.311  0.3235  0.6215  0.5812
    4MOL    C17 6488   7.394   2.554   3.353  0.9978 -0.5310  0.1267
    4MOL    C18 6489   7.296   2.505   3.442 -0.8243 -0.2023 -1.0208
    4MOL    C19 6490   7.284   2.773   3.361  0.0844  1.2412  0.6255
    4MOL    C20 6491   7.195   2.582   3.490  0.2000 -0.0796  0.5531
    4MOL    C21 6492   7.188   2.720   3.457  0.2175 -0.6464  0.5792
    4MOL    C22 6493   7.467   2.749   3.193 -0.6453  0.3803 -0.5907
    4MOL    C23 6494   7.548   2.639   3.108  0.3277 -0.8040 -0.8099
    4MOL     F1 6495   7.600   2.701   3.000 -0.2764  0.5344 -0.1665
    4MOL     F2 6496   7.471   2.538   3.062 -0.2559 -0.7000 -0.1433
    4MOL     F3 6497   7.640   2.586   3.190  0.6130  0.6563  0.2433
    4MOL    C24 6498   7.561   2.858   3.247  0.0250  0.4510  0.2350
    4MOL     F4 6499   7.643   2.794   3.336 -0.0857 -0.3561 -0.1479
    4MOL     F5 6500   7.507   2.966   3.316 -0.2485 -0.2726  0.0930
    4MOL     F6 6501   7.639   2.910   3.145 -0.4894  0.4317  0.2725
    4MOL     O2 6502   7.254   3.224   2.959  0.7893 -0.3522  0.0290
    4MOL    C25 6503   7.278   2.359   3.491  0.5558  0.3028 -0.0474
    4MOL     N4 6504   7.172   2.369   3.580 -0.5823  0.0287 -0.1987
    4MOL    C26 6505   7.108   2.491   3.575 -0.1607 -0.3639  0.2392
    4MOL     O3 6506   7.001   2.514   3.628  0.1064 -0.0425  0.1335
    4MOL    C27 6507   6.519   3.535   2.789 -0.1003  0.3106  0.0561
    4MOL    C28 6508   6.552   3.552   2.921 -0.2468  0.5018 -0.1210
    4MOL    C29 6509   6.384   3.506   2.754  0.1164  0.5465 -0.6931
    4MOL    C30 6510   6.459   3.555   3.019 -0.8629 -0.3032  0.4322
    4MOL    C31 6511   6.283   3.508   2.853  0.1789  0.8407 -0.2491
    4MOL    C32 6512   6.320   3.539   2.987  0.3334  0.4019 -0.2288
    4MOL    C33 6513   6.235   3.584   3.088 -0.1490 -0.5229  0.2407
    4MOL     N5 6514   6.233   3.719   3.141 -0.1392  0.4611 -0.7102
    4MOL     N6 6515   6.121   3.515   3.132  0.0386 -0.7618 -0.6967
    4MOL    C34 6516   6.106   3.732   3.202  0.3808 -0.5514 -0.5904
    4MOL    C35 6517   6.050   3.608   3.208  0.4163 -0.6892  0.1279
    4MOL    C36 6518   6.123   3.372   3.164  0.1854  0.2862  0.1896
    4MOL     H1 6519   6.067   3.351   3.254  0.2457 -0.8983 -2.1008
    4MOL     H2 6520   6.226   3.349   3.165 -1.6593  3.4405  1.3095
    4MOL     H3 6521   6.082   3.322   3.075 -0.6970 -0.6973 -1.9264
    4MOL    C37 6522   6.323   3.809   3.095  0.0376 -0.0772 -0.7413
    4MOL    C38 6523   6.329   3.836   2.956  0.1696  0.0794 -0.4759
    4MOL    C39 6524   6.430   3.918   2.898  0.2053 -0.2136  0.1805
    4MOL    C40 6525   6.532   3.966   2.980 -0.3753  0.2762 -1.0569
    4MOL    C41 6526   6.522   3.953   3.121  0.1003  0.1329  0.5140
    4MOL    C42 6527   6.422   3.866   3.174 -0.1182  0.4767 -0.3327
    4MOL    C43 6528   5.920   3.577   3.277  0.9905 -0.2789  0.7289
    4MOL     F7 6529   5.932   3.472   3.358 -0.2826  0.0435  0.1958
    4MOL     F8 6530   5.827   3.563   3.189  0.3513 -0.9941 -0.7250
    4MOL     F9 6531   5.890   3.681   3.354  0.6494 -0.2062 -0.5958
    4MOL    C44 6532   6.812   3.630   2.624  0.2620  0.2830 -0.3563
    4MOL    C45 6533   6.718   3.691   2.556  0.1484 -0.6338 -0.6326
    4MOL    C46 6534   6.738   3.807   2.464  0.0659 -0.5153  0.4776
    4MOL    F10 6535   6.865   3.851   2.477  0.1122 -0.0220  0.1467
    4MOL    F11 6536   6.722   3.769   2.337 -0.0539  0.4237 -0.1172
    4MOL     H4 6537   6.918   3.658   2.624  1.8324  1.0371  2.2028
    4MOL     H5 6538   6.700   3.389   2.931 -0.9044  0.4691  1.0134
    4MOL     H6 6539   6.827   3.218   3.027  2.0847  0.6354  1.6776
    4MOL     H7 6540   6.993   3.424   2.613 -0.5918  1.3616 -0.2622
    4MOL     H8 6541   7.122   3.240   2.731  0.0988  0.3610 -1.9336
    4MOL     H9 6542   7.435   3.004   3.067  3.1973 -0.6493 -0.9875
    4MOL    H10 6543   7.252   2.608   3.105 -2.3941 -0.3047  0.4414
    4MOL    H11 6544   7.043   2.704   3.021 -0.7293  1.0802 -2.2327
    4MOL    H12 6545   7.273   2.868   3.324  0.7570 -1.7305 -0.0427
    4MOL    H13 6546   7.473   2.483   3.324 -1.9370 -2.5006 -2.7044
    4MOL    H14 6547   7.112   2.789   3.497 -1.1265 -1.0754  1.1845
    4MOL     O4 6548   7.352   2.261   3.483  0.2905 -0.0657  0.2215
    4MOL    H15 6549   6.656   3.563   2.948  0.7028 -1.9521 -0.7608
    4MOL    H16 6550   6.495   3.577   3.118 -5.5520  1.6661  0.2734
    4MOL    H17 6551   6.351   3.483   2.655  0.4492  0.3148 -0.4958
    4MOL    H18 6552   6.428   3.947   2.795 -4.6719  1.4534 -0.5012
    4MOL    H19 6553   6.268   3.785   2.885 -3.2824 -0.1528 -1.3716
    4MOL    H20 6554   6.603   3.982   3.183  0.0854 -3.0099 -0.8400
    4MOL    H21 6555   6.428   3.842   3.278 -1.9234  2.2724 -0.1626
    4MOL    H22 6556   6.077   3.823   3.243 -0.3135  2.2002 -2.4611
    4MOL    H23 6557   6.179   3.478   2.830  0.1768 -2.2343  1.4498
    4MOL    F12 6558   6.656   3.916   2.486 -0.1334 -0.6080  0.0283
    4MOL    C47 6559   6.496   3.594   2.464  0.4446  0.1413 -0.2782
    4MOL    H24 6560   6.421   3.671   2.473  1.9239  1.7673 -0.2293
    4MOL    H25 6561   6.449   3.494   2.475  1.9642 -1.3268  0.1133
    4MOL    H26 6562   6.542   3.601   2.364 -1.8336  0.5968 -2.2932
    4MOL     N1 6563   7.156   2.642   3.935 -0.1931  0.1065  0.8007
    4MOL     N2 6564   6.965   2.749   3.864  0.3332  0.2787 -0.2063
    4MOL     C1 6565   7.015   2.634   3.934 -1.2516 -0.0732  0.4887
    4MOL     C2 6566   6.830   2.792   3.845 -0.3781 -0.0286  0.0717
    4MOL     C3 6567   6.728   2.730   3.919  0.1925 -0.7557  0.4795
    4MOL     C4 6568   6.595   2.763   3.892 -0.6585  0.7286  0.7223
    4MOL     C5 6569   6.561   2.863   3.801 -0.0011  0.6361  0.7225
    4MOL     C6 6570   6.662   2.930   3.735  0.1782 -0.3082  0.5460
    4MOL     C7 6571   6.796   2.895   3.759 -0.2011 -0.0990 -0.3122
    4MOL     N3 6572   6.431   2.887   3.754  0.7556 -0.2789  0.5289
    4MOL     C8 6573   6.375   3.014   3.749 -0.1774  0.6187  0.6147
    4MOL     C9 6574   6.235   2.995   3.709 -0.9555  0.2718  0.9062
    4MOL    C10 6575   6.213   2.862   3.686  0.4995 -0.3983 -0.1371
    4MOL    C11 6576   6.340   2.786   3.718  0.2466  0.1746 -0.1460
    4MOL     O1 6577   6.360   2.663   3.704 -0.1430 -0.1898  0.3197
    4MOL    C12 6578   6.134   3.086   3.676  0.2139 -0.4718  0.3393
    4MOL    C13 6579   6.013   3.040   3.623  0.6747  0.1892 -0.4702
    4MOL    C14 6580   5.990   2.906   3.612 -0.2943  0.5008  0.3086
    4MOL    C15 6581   6.091   2.811   3.653  0.1532 -0.0332 -0.0068
    4MOL    C16 6582   5.761   3.093   3.643 -0.6105  0.3794 -0.1944
    4MOL    C17 6583   5.647   3.057   3.567  0.3565  0.0448  0.3621
    4MOL    C18 6584   5.527   3.021   3.636 -0.1989  0.3485  0.2912
    4MOL    C19 6585   5.746   3.094   3.787 -0.4148  0.4876  0.4276
    4MOL    C20 6586   5.515   3.020   3.772 -0.3118  0.1766  0.2717
    4MOL    C21 6587   5.623   3.059   3.849 -0.1714 -0.7088 -0.1116
    4MOL    C22 6588   5.896   3.134   3.578 -0.1755 -0.3650  1.0234
    4MOL    C23 6589   5.928   3.292   3.615  0.3856  0.8308 -0.2178
    4MOL     F1 6590   5.947   3.304   3.750 -0.4386 -0.5497 -0.4409
    4MOL     F2 6591   5.825   3.384   3.578  0.2498  0.2776 -0.2175
    4MOL     F3 6592   6.043   3.332   3.558  0.1720  0.2931  0.3093
    4MOL    C24 6593   5.891   3.123   3.421 -0.4629  0.2532  0.0299
    4MOL     F4 6594   6.014   3.160   3.374  0.0392 -0.2406 -0.2723
    4MOL     F5 6595   5.805   3.207   3.360 -0.0344  0.0727 -0.0124
    4MOL     F6 6596   5.869   2.996   3.380 -0.3360 -0.0950 -0.3156
    4MOL     O2 6597   6.433   3.121   3.773  0.1582 -0.2877  0.0385
    4MOL    C25 6598   5.398   2.976   3.585  0.5136 -0.4594  0.0857
    4MOL     N4 6599   5.307   2.952   3.692  0.2388  0.3737  0.2249
    4MOL    C26 6600   5.368   2.981   3.815  0.2147 -0.4122 -0.1899
    4MOL     O3 6601   5.314   2.971   3.920  0.2362  0.5226 -0.6694
    4MOL    C27 6602   6.951   2.518   3.971  0.2138 -0.2055 -0.1631
    4MOL    C28 6603   6.864   2.467   3.870 -0.2211  0.6791  0.3348
    4MOL    C29 6604   6.962   2.443   4.088  0.2153 -0.4797  0.5571
    4MOL    C30 6605   6.788   2.354   3.888  0.4987  0.4280 -0.4063
    4MOL    C31 6606   6.892   2.320   4.107  0.6129 -0.3365  1.5422
    4MOL    C32 6607   6.813   2.273   3.997  0.5838 -0.5266 -1.1767
    4MOL    C33 6608   6.783   2.135   3.990  0.2092  0.0920 -0.0553
    4MOL     N5 6609   6.831   2.052   3.882 -0.2631 -0.2474 -0.0993
    4MOL     N6 6610   6.692   2.049   4.064  0.4370  0.2327  0.6464
    4MOL    C34 6611   6.761   1.930   3.884 -0.3008  0.0909  0.3047
    4MOL    C35 6612   6.671   1.934   3.984  0.1571  0.1868 -0.2170
    4MOL    C36 6613   6.607   2.104   4.166 -0.5823 -0.7169 -0.3134
    4MOL     H1 6614   6.512   2.132   4.129 -0.3158 -1.7684  3.1816
    4MOL     H2 6615   6.668   2.189   4.210  0.9471 -0.9736 -1.4457
    4MOL     H3 6616   6.591   2.034   4.249  0.2228  0.2025 -0.8421
    4MOL    C37 6617   6.929   2.102   3.794 -0.1025 -0.4232 -0.1232
    4MOL    C38 6618   7.056   2.134   3.843  0.4791 -0.0001  0.3455
    4MOL    C39 6619   7.144   2.207   3.764 -0.0105  0.2067 -0.2542
    4MOL    C40 6620   7.106   2.263   3.648  0.6313 -0.3604 -0.7580
    4MOL    C41 6621   6.982   2.223   3.596  0.4083  0.0972  0.2479
    4MOL    C42 6622   6.889   2.147   3.669  0.0446 -0.3552  0.0962
    4MOL    C43 6623   6.585   1.808   4.022 -0.2130  0.5320 -0.5862
    4MOL     F7 6624   6.664   1.703   4.059  0.4019 -0.1029  0.0654
    4MOL     F8 6625   6.506   1.766   3.920 -0.2516 -0.0126 -0.0008
    4MOL     F9 6626   6.508   1.829   4.131  0.1909  0.4351 -0.1308
    4MOL    C44 6627   7.080   2.816   3.820 -0.4701  0.2134 -0.5328
    4MOL    C45 6628   7.193   2.761   3.866  0.8413  0.4978  0.4549
    4MOL    C46 6629   7.331   2.790   3.812 -1.1003  0.3243  0.0438
    4MOL    F10 6630   7.336   2.900   3.742  0.9775 -0.1176  0.0930
    4MOL    F11 6631   7.418   2.800   3.914 -0.1165 -0.3239 -0.0462
    4MOL     H4 6632   7.071   2.912   3.767  3.3812  1.4299  0.0985
    4MOL     H5 6633   6.759   2.657   3.994  1.8125  0.8308 -0.2294
    4MOL     H6 6634   6.522   2.710   3.945  2.2454 -1.0714  2.6915
    4MOL     H7 6635   6.874   2.933   3.696  3.2085 -2.5755 -0.4987
    4MOL     H8 6636   6.638   3.007   3.657 -1.3077 -1.6632 -0.4878
    4MOL     H9 6637   6.144   3.191   3.686 -1.7224  0.8102 -1.9535
    4MOL    H10 6638   5.889   2.874   3.582 -1.2710  0.4936 -0.3370
    4MOL    H11 6639   6.063   2.710   3.635  1.3794  2.1421  0.4928
    4MOL    H12 6640   5.836   3.116   3.848 -0.2566  0.3403 -1.8455
    4MOL    H13 6641   5.656   3.047   3.462 -0.2155 -0.5000 -1.7033
    4MOL    H14 6642   5.613   3.053   3.957  0.9205 -0.3317  0.6521
    4MOL     O4 6643   5.372   2.962   3.470 -0.2085 -0.1946 -0.3376
    4MOL    H15 6644   6.850   2.528   3.783  1.2055 -1.9272  2.5327
    4MOL    H16 6645   6.722   2.320   3.808  1.1316 -0.4372  1.2757
    4MOL    H17 6646   7.019   2.474   4.171  0.7263  0.8473  3.1174
    4MOL    H18 6647   7.232   2.247   3.811  1.9771  0.2414 -0.0140
    4MOL    H19 6648   7.084   2.110   3.947 -0.4292 -0.8241  0.4495
    4MOL    H20 6649   6.963   2.261   3.497  0.2585 -0.7039 -0.4029
    4MOL    H21 6650   6.797   2.124   3.633  0.3901  1.6156  0.9407
    4MOL    H22 6651   6.778   1.863   3.802  1.7474 -0.7353  0.0016
    4MOL    H23 6652   6.894   2.271   4.198 -0.4532  1.7480 -0.0044
    4MOL    F12 6653   7.381   2.693   3.725 -0.0921 -0.0202 -0.2491
    4MOL    C47 6654   7.247   2.519   3.931 -0.1090 -0.3151  0.2892
    4MOL    H24 6655   7.349   2.549   3.970  1.7023 -1.6160 -2.7801
    4MOL    H25 6656   7.269   2.496   3.828  1.0696  1.5555  0.4364
    4MOL    H26 6657   7.201   2.437   3.980 -0.2400  1.2492 -0.3015
    4MOL     N1 6658   4.614   3.528   3.509  0.4713 -1.4284 -0.5949
    4MOL     N2 6659   4.753   3.496   3.331 -0.6448  0.0327 -0.6632
    4MOL     C1 6660   4.672   3.430   3.427 -0.0003 -0.4436 -0.0624
    4MOL     C2 6661   4.821   3.437   3.222  0.0622  0.0897 -0.0419
    4MOL     C3 6662   4.929   3.344   3.240  0.0862 -0.3681 -0.0659
    4MOL     C4 6663   4.983   3.286   3.128 -0.1775 -0.6128 -0.4552
    4MOL     C5 6664   4.941   3.315   2.996  0.0394  0.0003  0.4542
    4MOL     C6 6665   4.848   3.420   2.976 -0.1327  0.2149 -0.3054
    4MOL     C7 6666   4.786   3.473   3.092  0.3650 -0.0236 -1.0613
    4MOL     N3 6667   5.000   3.249   2.889 -0.7292 -0.4632 -0.2092
    4MOL     C8 6668   5.047   3.320   2.776  0.6708 -0.6199 -0.1717
    4MOL     C9 6669   5.074   3.220   2.670  0.6480  0.0327  0.0295
    4MOL    C10 6670   5.051   3.098   2.722  0.1379 -0.2255  0.0507
    4MOL    C11 6671   4.993   3.115   2.860  0.4698 -0.5566  0.1581
    4MOL     O1 6672   4.942   3.031   2.927  0.0313  0.1740  0.4597
    4MOL    C12 6673   5.133   3.241   2.542  0.2203 -0.0015  0.1236
    4MOL    C13 6674   5.174   3.124   2.464 -0.2613  0.4281 -0.3551
    4MOL    C14 6675   5.154   2.995   2.521 -0.2047 -0.1037  0.1139
    4MOL    C15 6676   5.090   2.977   2.646 -0.9640 -0.5610  0.1421
    4MOL    C16 6677   5.314   3.268   2.309  0.3278 -0.0293 -0.2827
    4MOL    C17 6678   5.280   3.374   2.226  0.0930  0.0962 -0.2077
    4MOL    C18 6679   5.350   3.495   2.226  0.3329 -1.2928 -0.0602
    4MOL    C19 6680   5.431   3.280   2.383  0.2880  0.5404 -0.1974
    4MOL    C20 6681   5.466   3.506   2.296 -0.5906  0.6964  0.0131
    4MOL    C21 6682   5.510   3.396   2.372  0.6381 -0.1520 -0.7543
    4MOL    C22 6683   5.225   3.137   2.319  0.2318 -0.4535  0.5825
    4MOL    C23 6684   5.321   3.020   2.274  0.0940  0.3262  0.3770
    4MOL     F1 6685   5.386   3.055   2.163  0.5642 -0.8330 -0.4665
    4MOL     F2 6686   5.248   2.917   2.229  0.0146 -0.3353 -0.0531
    4MOL     F3 6687   5.397   2.981   2.372  0.3383  0.2148  0.0543
    4MOL    C24 6688   5.092   3.143   2.227 -0.0689  0.5442 -0.2276
    4MOL     F4 6689   5.011   3.039   2.249 -0.4575  0.5151 -0.8468
    4MOL     F5 6690   5.120   3.148   2.094 -0.0814  0.2033  0.0618
    4MOL     F6 6691   5.020   3.251   2.258 -0.3570  0.1934 -0.1633
    4MOL     O2 6692   5.056   3.444   2.768 -0.0238  0.4051 -0.0249
    4MOL    C25 6693   5.332   3.631   2.156 -0.5413  0.3034  0.1603
    4MOL     N4 6694   5.437   3.710   2.190  0.4036 -0.6587  0.4097
    4MOL    C26 6695   5.525   3.636   2.272 -0.3071 -0.3759 -0.7709
    4MOL     O3 6696   5.619   3.690   2.327  0.3242  0.1576  0.4664
    4MOL    C27 6697   4.660   3.294   3.455 -0.2409  0.6488 -0.3940
    4MOL    C28 6698   4.780   3.235   3.485 -0.5527 -0.4391  0.6854
    4MOL    C29 6699   4.545   3.214   3.429  0.5712  0.1934 -0.2865
    4MOL    C30 6700   4.801   3.098   3.466  0.0500  0.6611 -0.2922
    4MOL    C31 6701   4.569   3.075   3.429  0.3238  0.1389 -0.4244
    4MOL    C32 6702   4.694   3.014   3.443 -0.2979  0.0455 -0.3518
    4MOL    C33 6703   4.710   2.871   3.455 -0.3372 -0.4426  0.0105
    4MOL     N5 6704   4.784   2.793   3.552  0.3302  1.0628 -0.3939
    4MOL     N6 6705   4.619   2.775   3.391 -0.8254  0.4288  0.2751
    4MOL    C34 6706   4.723   2.672   3.554  0.2813  0.3208  0.6851
    4MOL    C35 6707   4.627   2.657   3.462 -0.1990  0.1777 -0.0160
    4MOL    C36 6708   4.547   2.790   3.262  0.3673  0.4613  0.8082
    4MOL     H1 6709   4.571   2.700   3.200 -1.7470 -2.5090  1.6733
    4MOL     H2 6710   4.565   2.891   3.212 -2.0356  1.6229 -0.2371
    4MOL     H3 6711   4.437   2.801   3.290 -3.1628  2.9043  0.8122
    4MOL    C37 6712   4.911   2.829   3.604 -0.3006 -0.0697 -0.5745
    4MOL    C38 6713   5.027   2.757   3.569 -0.3261  0.1792 -0.9315
    4MOL    C39 6714   5.156   2.787   3.606  0.9045  0.7042 -0.1533
    4MOL    C40 6715   5.171   2.908   3.675 -0.1690 -0.2264 -0.8143
    4MOL    C41 6716   5.064   2.987   3.717 -0.2867  0.6680  0.0283
    4MOL    C42 6717   4.932   2.941   3.688 -0.0545  0.0858 -0.7416
    4MOL    C43 6718   4.533   2.542   3.456  0.5278 -0.1250  0.2538
    4MOL     F7 6719   4.413   2.570   3.511 -0.1547 -0.1017  1.0305
    4MOL     F8 6720   4.585   2.435   3.523 -0.0564  0.2173  0.0997
    4MOL     F9 6721   4.518   2.497   3.329  0.0261  0.3590  0.2313
    4MOL    C44 6722   4.775   3.622   3.380  0.1297  0.3803  0.5029
    4MOL    C45 6723   4.692   3.645   3.482  0.3685 -0.3657  0.5855
    4MOL    C46 6724   4.693   3.769   3.571 -0.0434 -0.2256  0.6042
    4MOL    F10 6725   4.791   3.757   3.666 -0.4522 -0.0706 -0.1486
    4MOL    F11 6726   4.724   3.881   3.495  0.2023 -0.3147  0.1293
    4MOL     H4 6727   4.843   3.692   3.331  0.5972 -1.9137  1.4364
    4MOL     H5 6728   4.965   3.325   3.339  0.0938  1.1625  0.2136
    4MOL     H6 6729   5.072   3.225   3.148 -0.1091 -0.0697  2.9733
    4MOL     H7 6730   4.707   3.541   3.083 -1.4821 -0.8568 -0.0029
    4MOL     H8 6731   4.817   3.446   2.876  1.4333  2.0128  1.8254
    4MOL     H9 6732   5.150   3.344   2.502  0.1048  2.6017 -1.5962
    4MOL    H10 6733   5.183   2.897   2.480 -1.2146 -1.7993  3.6037
    4MOL    H11 6734   5.071   2.880   2.698 -3.8152  0.0432 -1.9376
    4MOL    H12 6735   5.464   3.206   2.446  0.5460  2.0986  1.0071
    4MOL    H13 6736   5.191   3.380   2.165 -0.5313  0.3126 -0.1409
    4MOL    H14 6737   5.596   3.401   2.428 -1.8700  1.4903  0.3980
    4MOL     O4 6738   5.244   3.658   2.087 -0.3264 -0.4389 -0.0439
    4MOL    H15 6739   4.865   3.296   3.508 -1.2642  0.9986  0.4884
    4MOL    H16 6740   4.901   3.061   3.488  1.2510 -0.6903  2.5101
    4MOL    H17 6741   4.452   3.257   3.402 -1.9994 -2.3669  0.4522
    4MOL    H18 6742   5.239   2.726   3.574  0.6960  0.2609  2.1281
    4MOL    H19 6743   5.015   2.659   3.523  0.3022  3.5487 -0.7309
    4MOL    H20 6744   5.080   3.070   3.777  0.4256 -0.0036  0.1931
    4MOL    H21 6745   4.847   3.006   3.714 -0.9797 -1.5208 -0.9004
    4MOL    H22 6746   4.765   2.593   3.627  2.3276 -1.9721 -1.0712
    4MOL    H23 6747   4.480   3.003   3.436 -2.6668 -1.2806 -1.4996
    4MOL    F12 6748   4.586   3.802   3.640 -0.1308 -0.2641 -0.3733
    4MOL    C47 6749   4.469   3.545   3.516  0.2638  0.0631  0.3763
    4MOL    H24 6750   4.447   3.609   3.600 -2.7175  1.8457  3.3382
    4MOL    H25 6751   4.416   3.454   3.520 -1.4574  3.7484 -0.1420
    4MOL    H26 6752   4.439   3.590   3.420  2.8037 -2.9429  0.4624
    4MOL     N1 6753   5.793   3.729   1.718  0.9826 -0.8338  0.3155
    4MOL     N2 6754   5.824   3.803   1.504  0.1391 -1.7165  0.2113
    4MOL     C1 6755   5.773   3.842   1.633  0.4691  0.1264  0.1375
    4MOL     C2 6756   5.785   3.863   1.383 -0.2242 -0.3006  0.2341
    4MOL     C3 6757   5.690   3.967   1.367  0.0485  0.4025 -0.5978
    4MOL     C4 6758   5.669   4.023   1.242  0.3769  0.8983  0.3779
    4MOL     C5 6759   5.741   3.986   1.129 -0.1173  0.2068 -0.4055
    4MOL     C6 6760   5.846   3.898   1.146  0.0344  0.2203 -0.4847
    4MOL     C7 6761   5.861   3.833   1.266  0.7152 -0.1738  0.2720
    4MOL     N3 6762   5.716   4.034   0.996  0.7808 -0.0243  0.4480
    4MOL     C8 6763   5.702   3.956   0.885  0.0067  0.0748 -0.9456
    4MOL     C9 6764   5.688   4.046   0.767 -0.7871  0.7052  0.3482
    4MOL    C10 6765   5.705   4.173   0.815  0.0129 -0.2424 -0.3525
    4MOL    C11 6766   5.723   4.169   0.965  0.6006 -0.2187  0.8602
    4MOL     O1 6767   5.735   4.258   1.045  0.2158 -0.2314  0.5412
    4MOL    C12 6768   5.686   4.019   0.629 -0.7640  0.3413 -0.2197
    4MOL    C13 6769   5.690   4.129   0.547  0.1649 -0.1199  0.3932
    4MOL    C14 6770   5.690   4.265   0.594 -0.2243 -0.2095 -0.8917
    4MOL    C15 6771   5.698   4.283   0.731  0.2940 -0.1062 -0.0624
    4MOL    C16 6772   5.805   3.993   0.375 -0.4625 -0.7484 -0.1862
    4MOL    C17 6773   5.933   4.024   0.431  0.5473 -0.0436  0.3006
    4MOL    C18 6774   6.015   3.919   0.465  0.1838  0.8499  0.1091
    4MOL    C19 6775   5.773   3.859   0.346  0.1752 -0.7487  0.5347
    4MOL    C20 6776   5.989   3.790   0.422  0.7267 -0.1862 -1.2603
    4MOL    C21 6777   5.869   3.757   0.362 -0.0147 -0.7366 -0.2569
    4MOL    C22 6778   5.698   4.099   0.397  0.0986 -0.5065  0.0565
    4MOL    C23 6779   5.554   4.054   0.347  0.1933  0.2119 -1.3323
    4MOL     F1 6780   5.460   4.148   0.381 -0.4986 -0.0079 -0.3919
    4MOL     F2 6781   5.508   3.946   0.414 -0.1571 -0.2947  0.2903
    4MOL     F3 6782   5.553   4.027   0.215 -0.1397  0.0925  0.0340
    4MOL    C24 6783   5.732   4.217   0.301  0.0720  0.1094 -0.3003
    4MOL     F4 6784   5.775   4.164   0.172 -0.7862  0.2067 -0.0639
    4MOL     F5 6785   5.829   4.292   0.346  0.1238 -0.1688 -0.4876
    4MOL     F6 6786   5.633   4.305   0.273 -0.3160  0.2774 -0.0431
    4MOL     O2 6787   5.688   3.836   0.894 -0.3078  0.3559  0.1746
    4MOL    C25 6788   6.149   3.921   0.530 -0.3644  0.2243  0.3094
    4MOL     N4 6789   6.186   3.791   0.528  0.7787  0.5499 -0.1342
    4MOL    C26 6790   6.103   3.705   0.459  0.3538 -0.3768 -0.3475
    4MOL     O3 6791   6.113   3.583   0.446 -0.1230  0.1132  0.0389
    4MOL    C27 6792   5.713   3.964   1.670 -0.5202 -0.4701  0.6233
    4MOL    C28 6793   5.578   3.973   1.701  0.1384  0.0521  0.1735
    4MOL    C29 6794   5.792   4.073   1.694 -0.2931  0.0350  0.4787
    4MOL    C30 6795   5.530   4.092   1.759  0.1355  0.3185  0.0106
    4MOL    C31 6796   5.753   4.185   1.764 -0.0540 -0.2588 -0.5637
    4MOL    C32 6797   5.618   4.191   1.797  0.5466  0.0412  0.1734
    4MOL    C33 6798   5.568   4.283   1.887 -0.3196 -0.4333 -0.4134
    4MOL     N5 6799   5.545   4.246   2.025  0.0370  0.1189 -0.6656
    4MOL     N6 6800   5.562   4.423   1.882  0.5990  0.0614  0.2101
    4MOL    C34 6801   5.524   4.372   2.090  0.8169  0.2010  0.0216
    4MOL    C35 6802   5.526   4.476   2.009  0.1443  0.7105 -0.4383
    4MOL    C36 6803   5.526   4.490   1.753 -0.2033 -0.0132  0.1071
    4MOL     H1 6804   5.413   4.498   1.746 -0.3016 -0.2864 -2.6928
    4MOL     H2 6805   5.575   4.436   1.675 -3.0538  0.6986  0.1721
    4MOL     H3 6806   5.567   4.597   1.748 -2.4042 -1.1921  0.4648
    4MOL    C37 6807   5.522   4.121   2.067  0.4947  0.1097 -0.2152
    4MOL    C38 6808   5.609   4.012   2.045 -0.1868  0.4025 -0.4409
    4MOL    C39 6809   5.577   3.878   2.072 -0.8402  0.3283  0.1763
    4MOL    C40 6810   5.466   3.846   2.151 -0.9007  0.4300 -0.2016
    4MOL    C41 6811   5.382   3.950   2.187 -0.1974 -0.0035 -0.5618
    4MOL    C42 6812   5.400   4.080   2.134 -0.4636 -0.1038  0.1797
    4MOL    C43 6813   5.508   4.624   2.054  0.6774 -0.3971  0.2355
    4MOL     F7 6814   5.472   4.707   1.951  0.1585  0.4724 -0.0121
    4MOL     F8 6815   5.613   4.677   2.119 -0.5327  0.0400  0.0942
    4MOL     F9 6816   5.406   4.628   2.143  0.5232 -0.0251 -0.2922
    4MOL    C44 6817   5.898   3.679   1.521 -0.1086 -0.2011 -0.2987
    4MOL    C45 6818   5.886   3.647   1.645  0.1192  0.2022  0.6484
    4MOL    C46 6819   5.968   3.541   1.723  0.3682 -0.2387  0.2456
    4MOL    F10 6820   5.884   3.457   1.777 -0.8303 -0.1719  0.0640
    4MOL    F11 6821   6.067   3.482   1.660 -0.6849 -0.2393  0.6411
    4MOL     H4 6822   5.954   3.640   1.436 -1.9382 -2.4038 -3.0313
    4MOL     H5 6823   5.638   4.019   1.450 -0.5128 -1.7891  2.0800
    4MOL     H6 6824   5.584   4.092   1.228 -1.3781  2.2932 -2.3642
    4MOL     H7 6825   5.934   3.757   1.275  0.7221  1.3197  1.7664
    4MOL     H8 6826   5.908   3.887   1.062 -0.4471  1.2484  0.9373
    4MOL     H9 6827   5.674   3.921   0.592  1.4351  1.2004 -1.3097
    4MOL    H10 6828   5.684   4.345   0.523  1.6574 -1.6813 -1.0740
    4MOL    H11 6829   5.691   4.383   0.771  1.7673 -0.2509 -0.0796
    4MOL    H12 6830   5.672   3.825   0.310 -0.2215  0.4287 -3.7110
    4MOL    H13 6831   5.968   4.124   0.460  1.1548  4.1269 -1.7467
    4MOL    H14 6832   5.837   3.656   0.340 -0.5136 -0.8878  0.8794
    4MOL     O4 6833   6.195   4.009   0.595 -0.1037 -0.0423 -0.0267
    4MOL    H15 6834   5.521   3.889   1.685  0.2915  4.2889 -1.6022
    4MOL    H16 6835   5.430   4.091   1.806 -3.2312  0.2900  0.2529
    4MOL    H17 6836   5.897   4.074   1.664 -2.2779 -0.7888  0.0408
    4MOL    H18 6837   5.649   3.799   2.045  0.3864  2.3564  1.3289
    4MOL    H19 6838   5.701   4.034   1.989  2.1733  2.0332  0.6975
    4MOL    H20 6839   5.294   3.933   2.252 -1.7285 -1.8765  0.6072
    4MOL    H21 6840   5.327   4.160   2.155  1.3514  1.6835  0.7453
    4MOL    H22 6841   5.510   4.376   2.193  5.2082 -3.5992 -2.4902
    4MOL    H23 6842   5.825   4.266   1.786 -0.4562  2.8769  0.3460
    4MOL    F12 6843   6.023   3.587   1.845 -0.2301 -0.0756  0.5923
    4MOL    C47 6844   5.681   3.677   1.797  0.0138 -0.0649 -0.2345
    4MOL    H24 6845   5.712   3.675   1.906 -0.6881  0.4449  0.9696
    4MOL    H25 6846   5.663   3.572   1.778  0.8771 -0.0030  3.4723
    4MOL    H26 6847   5.596   3.739   1.772  1.8501 -3.4983 -0.6839
    4MOL     N1 6848   5.922   3.424   0.705 -0.2813  0.0253  0.3276
    4MOL     N2 6849   5.947   3.326   0.500 -0.1690  0.5859 -0.3813
    4MOL     C1 6850   6.009   3.336   0.633 -0.6926 -0.0135  0.1220
    4MOL     C2 6851   5.978   3.232   0.398  0.4978 -0.1395 -0.0530
    4MOL     C3 6852   6.072   3.129   0.418 -0.5159 -0.8509  0.7533
    4MOL     C4 6853   6.113   3.051   0.318 -0.3682  0.2581  0.7905
    4MOL     C5 6854   6.053   3.066   0.190 -0.4880  0.3686 -0.1588
    4MOL     C6 6855   5.951   3.157   0.165  0.2816  0.3192 -0.2249
    4MOL     C7 6856   5.920   3.248   0.269 -0.1185 -0.0208  0.0278
    4MOL     N3 6857   6.121   3.008   0.085  0.1750  0.4031  0.0033
    4MOL     C8 6858   6.242   3.056   0.032 -0.0161  0.0642 -0.3132
    4MOL     C9 6859   6.283   2.952  -0.069  0.1740 -0.4751 -0.2167
    4MOL    C10 6860   6.179   2.865  -0.075 -0.2864  0.5622  0.0146
    4MOL    C11 6861   6.075   2.890   0.025 -0.4915  0.3956 -0.2664
    4MOL     O1 6862   5.982   2.824   0.064  0.0642 -0.2669  0.4057
    4MOL    C12 6863   6.384   2.957  -0.165 -0.8044 -0.3349 -0.1458
    4MOL    C13 6864   6.391   2.856  -0.267 -0.7913  0.3248  0.4650
    4MOL    C14 6865   6.272   2.777  -0.281 -0.4376 -0.1552  0.4050
    4MOL    C15 6866   6.169   2.784  -0.190  0.6364 -0.3941 -0.5789
    4MOL    C16 6867   6.633   2.924  -0.329 -1.1864  0.2219 -0.1075
    4MOL    C17 6868   6.685   2.903  -0.198 -0.1376  0.2859  0.5144
    4MOL    C18 6869   6.795   2.973  -0.145 -0.2163  0.3338  0.1294
    4MOL    C19 6870   6.716   3.004  -0.412  0.1124  0.3167  0.2737
    4MOL    C20 6871   6.864   3.056  -0.226 -0.9768  0.3522  0.8882
    4MOL    C21 6872   6.833   3.072  -0.364 -0.2244  0.2937 -0.0620
    4MOL    C22 6873   6.506   2.856  -0.381 -0.5331  0.1128  0.3314
    4MOL    C23 6874   6.548   2.709  -0.416  0.2488 -0.3845 -0.1701
    4MOL     F1 6875   6.594   2.644  -0.303  0.1451 -0.8573  0.5219
    4MOL     F2 6876   6.664   2.720  -0.485  0.1610 -0.6572 -0.0717
    4MOL     F3 6877   6.459   2.634  -0.479  0.4214  1.0265  0.1870
    4MOL    C24 6878   6.431   2.932  -0.492 -0.2283  0.5333 -0.3600
    4MOL     F4 6879   6.390   3.050  -0.441  0.1555 -0.0611  0.1157
    4MOL     F5 6880   6.322   2.862  -0.537  0.6916  0.2559 -0.5456
    4MOL     F6 6881   6.504   2.953  -0.601  0.3881 -0.2183  0.3166
    4MOL     O2 6882   6.304   3.158   0.064 -0.7962 -0.1037  0.0040
    4MOL    C25 6883   6.847   2.978  -0.012 -0.5798 -0.5540  0.6034
    4MOL     N4 6884   6.940   3.078  -0.016 -0.4316  0.4440  0.4877
    4MOL    C26 6885   6.955   3.129  -0.144 -0.4927  0.9896  0.3074
    4MOL     O3 6886   7.023   3.230  -0.168  0.0615  0.6956 -0.3720
    4MOL    C27 6887   6.143   3.304   0.665  0.8052 -0.0706  0.6226
    4MOL    C28 6888   6.238   3.358   0.575 -0.4891  0.2661  0.2097
    4MOL    C29 6889   6.176   3.253   0.785 -0.4794 -0.7265 -0.0882
    4MOL    C30 6890   6.370   3.362   0.612  0.2566  0.4281  0.4148
    4MOL    C31 6891   6.309   3.264   0.831  0.9127 -0.5738 -0.3970
    4MOL    C32 6892   6.402   3.324   0.746 -0.6107 -0.3185 -0.4451
    4MOL    C33 6893   6.517   3.373   0.804 -0.2420  0.5059  0.4627
    4MOL     N5 6894   6.568   3.503   0.797  0.5571 -0.8663 -0.2019
    4MOL     N6 6895   6.616   3.291   0.875  0.3929 -0.9629 -0.1215
    4MOL    C34 6896   6.646   3.509   0.915 -0.3772 -0.4257  0.0659
    4MOL    C35 6897   6.677   3.385   0.956  0.6758 -0.3204  0.5365
    4MOL    C36 6898   6.661   3.165   0.823 -1.3592 -0.4803 -0.8665
    4MOL     H1 6899   6.767   3.138   0.852 -3.7975 -3.4794  0.4247
    4MOL     H2 6900   6.656   3.167   0.715 -0.1845  0.2157  1.8585
    4MOL     H3 6901   6.589   3.091   0.861 -2.8859  0.9853  0.6969
    4MOL    C37 6902   6.497   3.612   0.744 -0.3859  0.1066 -0.3413
    4MOL    C38 6903   6.523   3.651   0.614 -0.5015 -0.1474  0.1369
    4MOL    C39 6904   6.424   3.718   0.540  1.1755  0.3009 -0.6953
    4MOL    C40 6905   6.297   3.734   0.600 -0.0353  0.3577  0.6102
    4MOL    C41 6906   6.276   3.709   0.739 -0.0535 -0.8506  0.1731
    4MOL    C42 6907   6.372   3.638   0.805  0.3350  0.4270 -0.1842
    4MOL    C43 6908   6.760   3.338   1.074 -0.1258 -0.1636 -0.6843
    4MOL     F7 6909   6.787   3.206   1.067 -0.2359  0.2555 -0.2247
    4MOL     F8 6910   6.707   3.355   1.202 -0.1791 -0.6308  0.0834
    4MOL     F9 6911   6.872   3.408   1.084 -0.0914  0.0702  0.3489
    4MOL    C44 6912   5.848   3.423   0.493 -0.4014  0.6622 -0.6775
    4MOL    C45 6913   5.837   3.488   0.611 -0.1284 -0.6535  0.0593
    4MOL    C46 6914   5.745   3.603   0.639  0.2150  0.0496 -0.3051
    4MOL    F10 6915   5.827   3.711   0.649 -0.7050 -0.0055 -0.3993
    4MOL    F11 6916   5.650   3.632   0.550 -0.4514 -0.1096 -0.4104
    4MOL     H4 6917   5.794   3.439   0.397  1.9755 -0.9872 -3.8075
    4MOL     H5 6918   6.127   3.119   0.515  1.3711 -0.3282  2.0279
    4MOL     H6 6919   6.197   2.976   0.340 -0.1235 -1.1608  0.1673
    4MOL     H7 6920   5.852   3.325   0.246  1.4892 -1.4568  1.0771
    4MOL     H8 6921   5.900   3.166   0.062 -1.0654 -3.3938  1.0609
    4MOL     H9 6922   6.451   3.048  -0.162  0.6803 -0.5709 -1.1362
    4MOL    H10 6923   6.259   2.709  -0.366 -0.9559  1.2730 -1.0277
    4MOL    H11 6924   6.083   2.718  -0.215 -1.1081 -1.2919 -2.0721
    4MOL    H12 6925   6.697   3.010  -0.517 -0.5077  0.5248  1.0735
    4MOL    H13 6926   6.620   2.855  -0.126  0.5602  3.2565 -1.9437
    4MOL    H14 6927   6.894   3.146  -0.423 -2.0181  2.3707  1.0665
    4MOL     O4 6928   6.806   2.918   0.083 -0.0402 -0.0241  0.3361
    4MOL    H15 6929   6.205   3.388   0.478 -3.4257 -0.3918  1.5051
    4MOL    H16 6930   6.434   3.401   0.537 -0.8228 -0.2593  2.1642
    4MOL    H17 6931   6.099   3.213   0.852  0.8748  0.6900 -0.6861
    4MOL    H18 6932   6.448   3.747   0.433  0.5444  0.3624  0.3019
    4MOL    H19 6933   6.618   3.633   0.560  3.3553 -1.0666  1.6693
    4MOL    H20 6934   6.174   3.723   0.776 -0.8793 -1.4398 -2.2399
    4MOL    H21 6935   6.341   3.588   0.898  1.8889 -2.6439 -1.5173
    4MOL    H22 6936   6.684   3.609   0.943  0.4401 -0.0828 -0.0024
    4MOL    H23 6937   6.336   3.251   0.941  0.9558 -0.9316  0.0167
    4MOL    F12 6938   5.684   3.594   0.761 -0.1414 -0.1686  0.5143
    4MOL    C47 6939   5.965   3.503   0.819 -0.6182 -0.3753 -0.0566
    4MOL    H24 6940   5.887   3.508   0.895  2.1961  2.5912 -2.4235
    4MOL    H25 6941   5.969   3.611   0.786 -1.0089 -0.3580  0.5015
    4MOL    H26 6942   6.062   3.458   0.857  1.8707 -2.9962  0.0381
    4MOL     N1 6943   6.911   2.672   0.384 -0.3672  0.7336  0.7154
    4MOL     N2 6944   6.810   2.691   0.579 -0.4635  0.3196 -0.2840
    4MOL     C1 6945   6.900   2.758   0.491  0.4663  0.1420 -0.0844
    4MOL     C2 6946   6.778   2.721   0.708 -0.2422 -0.4020 -0.6279
    4MOL     C3 6947   6.676   2.653   0.774 -0.2892  0.3026  0.2300
    4MOL     C4 6948   6.655   2.666   0.913  0.2904  0.0378  0.4999
    4MOL     C5 6949   6.726   2.762   0.986 -0.2081 -0.3596 -0.2755
    4MOL     C6 6950   6.818   2.849   0.917  0.6610  0.1062  0.6205
    4MOL     C7 6951   6.851   2.823   0.783  0.1452  0.4294  0.5296
    4MOL     N3 6952   6.696   2.790   1.122  0.1548  0.3515  0.1246
    4MOL     C8 6953   6.643   2.913   1.162  0.3670 -0.5542 -0.3606
    4MOL     C9 6954   6.627   2.902   1.310 -0.4643  1.0955 -0.3242
    4MOL    C10 6955   6.691   2.788   1.351 -0.8527  0.0293  0.5989
    4MOL    C11 6956   6.741   2.719   1.227 -0.0973  0.2454 -0.5697
    4MOL     O1 6957   6.801   2.614   1.218  0.1348 -0.6940 -0.0393
    4MOL    C12 6958   6.576   2.995   1.403 -0.7993  0.2587 -0.1899
    4MOL    C13 6959   6.589   2.957   1.538 -0.2654  0.0819 -0.0562
    4MOL    C14 6960   6.666   2.841   1.583 -0.4975 -0.3276  0.1858
    4MOL    C15 6961   6.716   2.756   1.484  0.3985 -0.4425 -0.7577
    4MOL    C16 6962   6.371   3.066   1.587  0.3469  0.4296 -0.2507
    4MOL    C17 6963   6.305   2.954   1.536  0.0262  0.2843 -0.0045
    4MOL    C18 6964   6.181   2.967   1.469  0.3102  0.8660  0.2264
    4MOL    C19 6965   6.300   3.184   1.581  0.0750  0.9301 -0.5507
    4MOL    C20 6966   6.117   3.089   1.456  0.0558 -0.1708  0.7280
    4MOL    C21 6967   6.181   3.202   1.508  0.0801  0.4344  0.4192
    4MOL    C22 6968   6.513   3.052   1.637 -0.1002  0.1138  0.0649
    4MOL    C23 6969   6.503   2.983   1.785 -0.2162  0.3286 -0.3862
    4MOL     F1 6970   6.436   3.064   1.868  0.0729 -0.3117  0.0311
    4MOL     F2 6971   6.623   2.962   1.844 -0.4364 -0.3947  0.4559
    4MOL     F3 6972   6.432   2.873   1.779  0.4297 -0.0271  0.3639
    4MOL    C24 6973   6.599   3.183   1.655  0.7952 -0.4011 -0.0038
    4MOL     F4 6974   6.604   3.248   1.539 -0.2478 -0.1399 -0.3185
    4MOL     F5 6975   6.725   3.161   1.692 -0.1235  0.5068 -0.3579
    4MOL     F6 6976   6.552   3.269   1.753 -0.0425 -0.1155 -0.0574
    4MOL     O2 6977   6.589   3.001   1.097 -0.4418 -0.0028 -0.5008
    4MOL    C25 6978   6.088   2.870   1.398  0.3821 -0.2280 -0.3963
    4MOL     N4 6979   5.975   2.936   1.352 -0.7180  0.5378 -0.0869
    4MOL    C26 6980   5.983   3.067   1.393 -0.2096  0.1010  0.7187
    4MOL     O3 6981   5.898   3.155   1.371 -0.2564 -0.1379  0.5253
    4MOL    C27 6982   6.969   2.878   0.505  0.7277  0.2303 -0.6602
    4MOL    C28 6983   7.108   2.875   0.518 -0.3361 -0.0743  0.0564
    4MOL    C29 6984   6.902   2.999   0.517  0.6472 -0.4991  0.2177
    4MOL    C30 6985   7.177   2.989   0.559  0.2096  0.9890 -0.1229
    4MOL    C31 6986   6.972   3.118   0.545  0.3212  0.3037 -0.2660
    4MOL    C32 6987   7.109   3.111   0.566 -0.8911 -0.2855  0.0057
    4MOL    C33 6988   7.180   3.228   0.547 -0.3590  0.0739 -0.3643
    4MOL     N5 6989   7.203   3.290   0.421 -0.2935  0.1532 -0.1195
    4MOL     N6 6990   7.281   3.278   0.635  0.4428 -0.1618 -0.1319
    4MOL    C34 6991   7.316   3.368   0.436  0.5269  0.3042  0.5488
    4MOL    C35 6992   7.366   3.362   0.556  0.9018  0.3384  0.8101
    4MOL    C36 6993   7.305   3.234   0.770  0.2248 -1.4052 -0.0905
    4MOL     H1 6994   7.411   3.253   0.804 -2.3695 -1.9351  2.0481
    4MOL     H2 6995   7.288   3.130   0.772  1.5380  1.2511 -1.3224
    4MOL     H3 6996   7.236   3.281   0.840  0.3925 -0.5614 -2.7168
    4MOL    C37 6997   7.149   3.240   0.306  0.4991  0.0256  0.2802
    4MOL    C38 6998   7.170   3.102   0.273  0.1645 -0.4007 -0.2022
    4MOL    C39 6999   7.094   3.052   0.167  0.2832  0.5125  0.0119
    4MOL    C40 7000   7.007   3.136   0.091 -0.4236 -0.4457 -0.5691
    4MOL    C41 7001   6.995   3.269   0.124 -0.2886  0.5618 -0.4595
    4MOL    C42 7002   7.064   3.320   0.238 -0.1735 -0.2410  0.7735
    4MOL    C43 7003   7.471   3.456   0.606 -0.2427 -0.2224  0.3352
    4MOL     F7 7004   7.490   3.444   0.734 -0.0954  0.0745  0.2781
    4MOL     F8 7005   7.429   3.577   0.580  0.9967 -0.3684 -0.2141
    4MOL     F9 7006   7.585   3.443   0.534 -0.2814  0.7830  0.0923
    4MOL    C44 7007   6.771   2.573   0.521 -0.9254  0.2672  0.5143
    4MOL    C45 7008   6.836   2.558   0.406  0.2493  0.3869 -0.1784
    4MOL    C46 7009   6.827   2.441   0.308  0.1194 -0.3585 -0.1633
    4MOL    F10 7010   6.812   2.476   0.186 -0.1306 -0.1204  0.0185
    4MOL    F11 7011   6.929   2.353   0.315  0.5837 -0.2593 -0.0087
    4MOL     H4 7012   6.697   2.506   0.560  0.5242  1.3856  0.4507
    4MOL     H5 7013   6.611   2.577   0.725 -1.0614 -2.3120 -1.4059
    4MOL     H6 7014   6.573   2.603   0.963  0.9202 -1.8948 -1.4090
    4MOL     H7 7015   6.935   2.875   0.734  0.0113  0.8310 -4.0027
    4MOL     H8 7016   6.874   2.923   0.977 -0.1208  0.7171  0.4855
    4MOL     H9 7017   6.520   3.081   1.363 -3.1319  0.4430  1.0330
    4MOL    H10 7018   6.672   2.809   1.682  1.8908  1.2303 -1.3916
    4MOL    H11 7019   6.768   2.670   1.516 -1.8904  2.6434  2.8299
    4MOL    H12 7020   6.339   3.269   1.634 -1.0252  0.1854 -0.7017
    4MOL    H13 7021   6.357   2.861   1.538  3.1460  1.7388 -1.3447
    4MOL    H14 7022   6.127   3.291   1.503 -2.3455  0.7432 -1.0665
    4MOL     O4 7023   6.116   2.750   1.374 -0.0372 -0.9959  0.0661
    4MOL    H15 7024   7.154   2.781   0.513 -0.0805 -2.0721 -1.8692
    4MOL    H16 7025   7.284   2.980   0.579  4.2439  0.6148 -2.7644
    4MOL    H17 7026   6.790   3.008   0.511  0.1982  0.9636 -0.2546
    4MOL    H18 7027   7.098   2.943   0.140 -0.7184 -2.5478 -0.3175
    4MOL    H19 7028   7.246   3.041   0.327  2.3784 -0.9928  1.4509
    4MOL    H20 7029   6.928   3.339   0.078  0.6044  0.3139 -3.9807
    4MOL    H21 7030   7.057   3.428   0.264 -0.9768  2.7685  1.0521
    4MOL    H22 7031   7.346   3.429   0.354  0.0465  0.4694 -1.8760
    4MOL    H23 7032   6.920   3.213   0.562 -1.1150 -1.6044  1.5323
    4MOL    F12 7033   6.715   2.370   0.327  0.0259  0.0257  0.1726
    4MOL    C47 7034   7.014   2.679   0.278  0.0585 -0.2172  0.7144
    4MOL    H24 7035   6.982   2.743   0.191  0.5369 -0.7926 -0.3951
    4MOL    H25 7036   7.030   2.583   0.225  1.0904  2.8422  0.2937
    4MOL    H26 7037   7.112   2.719   0.315  1.3048 -1.0362 -1.7154
    4MOL     N1 7038   6.059   2.154   1.159  0.4041 -0.4012 -0.7350
    4MOL     N2 7039   5.885   2.006   1.112  0.5217 -0.2124  0.0840
    4MOL     C1 7040   5.924   2.143   1.110  0.3832 -0.6386  0.7251
    4MOL     C2 7041   5.786   1.938   1.051  0.1890 -0.4575 -0.5560
    4MOL     C3 7042   5.823   1.816   0.989  0.0330 -1.0832 -0.5368
    4MOL     C4 7043   5.723   1.724   0.956  0.0110 -0.0050 -0.2389
    4MOL     C5 7044   5.585   1.752   0.972 -0.5507  0.1109  0.7060
    4MOL     C6 7045   5.553   1.879   1.021 -0.0144 -0.0056  0.3271
    4MOL     C7 7046   5.652   1.973   1.059 -0.0847  0.1733  0.4728
    4MOL     N3 7047   5.490   1.658   0.927  0.1449  0.0211 -0.1615
    4MOL     C8 7048   5.373   1.618   0.999  0.8385  0.0696  0.1979
    4MOL     C9 7049   5.306   1.511   0.912  0.6448 -0.2811 -0.7004
    4MOL    C10 7050   5.387   1.497   0.801  0.2317 -0.4184  0.1077
    4MOL    C11 7051   5.500   1.594   0.803  0.0379 -0.0233  0.0483
    4MOL     O1 7052   5.571   1.629   0.707 -0.3557  0.4016  0.3018
    4MOL    C12 7053   5.182   1.435   0.922 -0.4628  0.6104 -0.0569
    4MOL    C13 7054   5.144   1.354   0.805  0.4474 -0.0573 -0.3759
    4MOL    C14 7055   5.233   1.339   0.699  0.6245 -0.1664 -0.2258
    4MOL    C15 7056   5.352   1.411   0.695 -0.3402  0.1356 -0.0115
    4MOL    C16 7057   4.903   1.376   0.881  0.7468  0.0615  0.0400
    4MOL    C17 7058   4.918   1.517   0.863  0.3058  0.2146  0.0234
    4MOL    C18 7059   4.851   1.597   0.956 -0.0530  0.2228  0.1505
    4MOL    C19 7060   4.795   1.322   0.958  0.7312  0.0948 -0.5133
    4MOL    C20 7061   4.753   1.545   1.036 -0.2291  0.0454 -0.2900
    4MOL    C21 7062   4.724   1.410   1.041 -0.2269  0.3934 -0.4153
    4MOL    C22 7063   5.003   1.282   0.800  0.3525  0.2518  0.1947
    4MOL    C23 7064   4.941   1.280   0.656 -0.3655  0.6348  0.5849
    4MOL     F1 7065   4.957   1.401   0.589  0.7175 -0.1187 -0.2604
    4MOL     F2 7066   4.809   1.256   0.652 -0.0860 -0.3355 -0.3286
    4MOL     F3 7067   4.986   1.176   0.578 -0.6748  0.3163 -0.6734
    4MOL    C24 7068   5.024   1.130   0.852  0.2678 -0.0944 -0.2403
    4MOL     F4 7069   5.017   1.136   0.993 -0.3104  0.2526  0.2846
    4MOL     F5 7070   5.145   1.076   0.818 -0.1494  0.3049  0.0552
    4MOL     F6 7071   4.930   1.046   0.809  0.0434  0.0937 -0.4114
    4MOL     O2 7072   5.344   1.662   1.114  0.2056  0.5192 -0.4379
    4MOL    C25 7073   4.875   1.737   0.997  0.1678  0.2846 -0.9264
    4MOL     N4 7074   4.789   1.763   1.102 -0.4332  0.1187  0.4297
    4MOL    C26 7075   4.710   1.652   1.129  0.4012 -0.4317  0.4136
    4MOL     O3 7076   4.619   1.655   1.206  0.5696 -0.0167 -0.6538
    4MOL    C27 7077   5.848   2.258   1.071  0.1988  0.0801 -0.1151
    4MOL    C28 7078   5.790   2.340   1.167 -0.0106 -0.5254  1.1329
    4MOL    C29 7079   5.804   2.276   0.938  0.1702  0.4780 -0.0215
    4MOL    C30 7080   5.707   2.448   1.135  0.5664 -0.3046 -0.1653
    4MOL    C31 7081   5.727   2.384   0.903 -0.5278 -0.2169  0.0294
    4MOL    C32 7082   5.665   2.470   1.006 -0.4757  1.0131 -0.0548
    4MOL    C33 7083   5.568   2.567   0.976  0.0788 -0.7605 -0.4527
    4MOL     N5 7084   5.571   2.699   1.035 -0.2946  0.1987 -0.2545
    4MOL     N6 7085   5.449   2.555   0.896 -0.0987  0.0094 -0.0644
    4MOL    C34 7086   5.460   2.757   0.973  0.0767  0.5644  0.1797
    4MOL    C35 7087   5.394   2.686   0.884  0.1015 -0.3662 -0.1543
    4MOL    C36 7088   5.417   2.443   0.803  0.5788 -0.0421  0.0638
    4MOL     H1 7089   5.396   2.479   0.703  0.8364 -1.5021 -0.1158
    4MOL     H2 7090   5.328   2.386   0.840  0.4391 -1.2754 -0.1426
    4MOL     H3 7091   5.500   2.374   0.807 -0.4616  0.6822 -1.0689
    4MOL    C37 7092   5.667   2.760   1.113 -0.2177  0.7140 -0.0689
    4MOL    C38 7093   5.804   2.739   1.079 -0.1622  0.6965  0.0257
    4MOL    C39 7094   5.908   2.786   1.168  0.2999  0.4197 -0.3059
    4MOL    C40 7095   5.872   2.872   1.278 -0.2967  0.0777 -0.3391
    4MOL    C41 7096   5.734   2.899   1.306 -0.2760 -0.2925 -0.2626
    4MOL    C42 7097   5.637   2.831   1.228  0.6091  0.7533 -0.1632
    4MOL    C43 7098   5.304   2.738   0.770  0.2721  0.3565 -0.3381
    4MOL     F7 7099   5.238   2.648   0.696 -0.1701  0.3338 -0.0121
    4MOL     F8 7100   5.373   2.826   0.689  0.0753 -0.1743  0.4716
    4MOL     F9 7101   5.209   2.804   0.831  0.3113  0.0848 -0.2275
    4MOL    C44 7102   6.005   1.947   1.165 -1.1544 -0.1133  0.0933
    4MOL    C45 7103   6.104   2.028   1.183  0.4171  0.1005 -0.5807
    4MOL    C46 7104   6.252   1.994   1.185 -0.5192 -0.1933  0.2086
    4MOL    F10 7105   6.331   2.095   1.136 -0.4075 -0.3537 -0.2790
    4MOL    F11 7106   6.300   1.963   1.308 -0.3444  0.2616  0.2139
    4MOL     H4 7107   6.013   1.840   1.158 -1.5742  0.0106 -1.7426
    4MOL     H5 7108   5.925   1.787   0.982  1.2594  2.8279  0.6456
    4MOL     H6 7109   5.756   1.623   0.915 -1.8934 -2.1733 -2.1275
    4MOL     H7 7110   5.620   2.073   1.102 -0.2302  1.9012 -1.2687
    4MOL     H8 7111   5.449   1.904   1.028 -0.5944 -1.1184 -2.8829
    4MOL     H9 7112   5.128   1.445   1.014  1.3621  0.4641  0.0722
    4MOL    H10 7113   5.202   1.282   0.615  0.7550  1.9962  2.6383
    4MOL    H11 7114   5.415   1.399   0.604 -1.7203 -2.6711 -2.0561
    4MOL    H12 7115   4.769   1.217   0.950 -1.1761  0.6714  0.5696
    4MOL    H13 7116   4.990   1.565   0.801 -1.8195 -0.4493  2.3458
    4MOL    H14 7117   4.648   1.376   1.101 -1.5487  1.6809  3.5241
    4MOL     O4 7118   4.947   1.820   0.937  0.4082  0.3732 -0.4158
    4MOL    H15 7119   5.827   2.328   1.271  3.0377  3.1527  2.1952
    4MOL    H16 7120   5.674   2.507   1.224  1.4041  4.7802 -1.0586
    4MOL    H17 7121   5.835   2.206   0.858 -0.5963 -3.1388 -0.5281
    4MOL    H18 7122   6.002   2.766   1.134 -2.7426  0.9401  0.8873
    4MOL    H19 7123   5.823   2.688   0.987 -0.7291  1.0529  1.8057
    4MOL    H20 7124   5.703   2.968   1.387 -0.0917 -1.1188 -2.4178
    4MOL    H21 7125   5.534   2.838   1.251  0.4447  1.6244 -1.9172
    4MOL    H22 7126   5.460   2.869   0.967 -2.1623  0.5658  0.5507
    4MOL    H23 7127   5.698   2.395   0.803 -1.4671 -1.4678  1.5934
    4MOL    F12 7128   6.293   1.890   1.105  0.7531  0.1103  0.7187
    4MOL    C47 7129   6.106   2.262   1.250 -0.1859  0.0168  0.0043
    4MOL    H24 7130   6.130   2.357   1.203 -0.8119  1.3384 -0.0239
    4MOL    H25 7131   6.200   2.225   1.295  0.0052  0.3443 -1.7552
    4MOL    H26 7132   6.027   2.273   1.326  1.7954 -0.4643  1.2311
    4MOL     N1 7133   4.743   2.703   0.782  0.0671 -0.4126 -0.5916
    4MOL     N2 7134   4.843   2.852   0.923  0.1983  0.1085  0.6080
    4MOL     C1 7135   4.823   2.713   0.901  0.1227  0.1575  0.1448
    4MOL     C2 7136   4.902   2.913   1.040 -0.4784 -0.2167 -0.3342
    4MOL     C3 7137   4.854   2.891   1.172 -0.1811 -0.4653 -0.2725
    4MOL     C4 7138   4.929   2.929   1.284 -0.3649  0.3088 -0.1086
    4MOL     C5 7139   5.047   3.005   1.259  0.1648  0.8540  0.5529
    4MOL     C6 7140   5.097   3.030   1.131 -0.3256 -0.5916  0.3360
    4MOL     C7 7141   5.027   2.975   1.028 -0.2301  0.3303  0.3021
    4MOL     N3 7142   5.137   3.028   1.366 -0.2465 -0.0890  0.7231
    4MOL     C8 7143   5.272   3.008   1.364  0.0635 -0.1356 -0.6777
    4MOL     C9 7144   5.311   3.059   1.498  0.1576 -0.3655  0.3144
    4MOL    C10 7145   5.209   3.110   1.571  0.4662  0.6367 -0.1865
    4MOL    C11 7146   5.093   3.083   1.489 -0.0583  0.1692 -0.0815
    4MOL     O1 7147   4.975   3.105   1.519  0.1223  0.0222 -0.0474
    4MOL    C12 7148   5.442   3.062   1.542 -0.2025 -0.9064 -0.3142
    4MOL    C13 7149   5.474   3.130   1.663  0.6165 -0.1665 -0.0729
    4MOL    C14 7150   5.364   3.188   1.733  0.5082  0.3763 -0.3593
    4MOL    C15 7151   5.235   3.176   1.694  0.3351  0.5629 -0.0705
    4MOL    C16 7152   5.698   3.005   1.699  0.6703 -0.4861  0.5951
    4MOL    C17 7153   5.627   2.883   1.703 -0.0189 -0.0961 -0.4126
    4MOL    C18 7154   5.692   2.763   1.697  0.2795  0.7614  0.1436
    4MOL    C19 7155   5.839   2.991   1.672  0.6200  1.0281  0.7724
    4MOL    C20 7156   5.829   2.754   1.676  0.0464 -0.8777  0.1629
    4MOL    C21 7157   5.908   2.871   1.667  0.2559  0.3240 -0.3741
    4MOL    C22 7158   5.622   3.142   1.707 -0.7352 -0.1941  0.8048
    4MOL    C23 7159   5.674   3.250   1.603 -0.6665  0.5157  0.2541
    4MOL     F1 7160   5.599   3.365   1.616 -0.1586 -0.0526 -0.6779
    4MOL     F2 7161   5.667   3.213   1.470  0.0623 -0.4510  0.4211
    4MOL     F3 7162   5.807   3.290   1.622 -0.3026 -0.3829  0.5587
    4MOL    C24 7163   5.634   3.188   1.859 -0.2206  0.2885 -0.1741
    4MOL     F4 7164   5.763   3.165   1.900  0.4002  0.0608 -0.0679
    4MOL     F5 7165   5.559   3.113   1.934 -0.2719 -0.2331 -0.3614
    4MOL     F6 7166   5.598   3.317   1.880 -0.2280 -0.5070 -0.2078
    4MOL     O2 7167   5.343   2.962   1.277 -0.3138 -0.0993  0.3936
    4MOL    C25 7168   5.643   2.620   1.700 -1.0725  0.3794  0.0991
    4MOL     N4 7169   5.758   2.540   1.681 -0.6402 -0.4131  0.2882
    4MOL    C26 7170   5.872   2.615   1.663 -0.8483 -0.3528 -0.3969
    4MOL     O3 7171   5.987   2.575   1.664  0.7613 -0.2179 -0.2303
    4MOL    C27 7172   4.831   2.608   0.989 -0.4384  0.5338  0.3686
    4MOL    C28 7173   4.755   2.601   1.105 -0.1206  0.1976  0.2933
    4MOL    C29 7174   4.937   2.517   0.982 -0.4461  0.9833 -0.3047
    4MOL    C30 7175   4.780   2.515   1.214  0.5139 -0.2064  0.2373
    4MOL    C31 7176   4.970   2.431   1.090  0.6356  0.0304  0.1032
    4MOL    C32 7177   4.896   2.434   1.213  0.3907  0.0693  0.5032
    4MOL    C33 7178   4.937   2.375   1.331 -0.0411  0.5239  0.0653
    4MOL     N5 7179   4.901   2.240   1.385 -0.1930  0.4526  0.4244
    4MOL     N6 7180   4.987   2.442   1.447  0.6110  0.8200  0.3504
    4MOL    C34 7181   4.890   2.263   1.523 -0.6029 -0.7117 -0.3491
    4MOL    C35 7182   4.935   2.383   1.560  0.2197  0.2197 -0.2451
    4MOL    C36 7183   5.028   2.580   1.433 -0.9750  0.4681 -0.8378
    4MOL     H1 7184   5.013   2.646   1.518 -0.2935 -0.2718 -0.7816
    4MOL     H2 7185   4.973   2.619   1.347  1.8936 -0.0308 -0.7210
    4MOL     H3 7186   5.135   2.577   1.400  2.0913 -0.9365  0.8419
    4MOL    C37 7187   4.871   2.121   1.310  1.0156  0.5372  0.0118
    4MOL    C38 7188   4.890   1.996   1.369  0.8303 -0.7869  0.0023
    4MOL    C39 7189   4.850   1.875   1.304  0.1187 -0.5337 -0.1134
    4MOL    C40 7190   4.794   1.885   1.177  0.3975 -0.2480 -0.1532
    4MOL    C41 7191   4.762   2.011   1.118  0.0093  0.2738 -0.4729
    4MOL    C42 7192   4.812   2.127   1.184 -0.0789 -0.5033  0.0202
    4MOL    C43 7193   4.951   2.441   1.701 -0.3287 -1.0896 -0.8162
    4MOL     F7 7194   4.986   2.572   1.704 -0.6229 -0.1304 -0.0437
    4MOL     F8 7195   5.047   2.368   1.777  0.2684  0.8022  0.5024
    4MOL     F9 7196   4.835   2.428   1.765 -0.1127 -0.2515 -0.5911
    4MOL    C44 7197   4.802   2.917   0.806 -0.4084 -0.7228 -0.1686
    4MOL    C45 7198   4.748   2.827   0.722  0.2643 -0.6814  0.1121
    4MOL    C46 7199   4.719   2.844   0.575 -0.8848 -0.0900  0.2224
    4MOL    F10 7200   4.612   2.776   0.529 -0.0903 -0.2020  0.6288
    4MOL    F11 7201   4.711   2.974   0.534 -0.2496 -0.0726  0.1657
    4MOL     H4 7202   4.838   3.015   0.788 -0.1029 -1.2258 -0.9787
    4MOL     H5 7203   4.766   2.829   1.191  2.1781  1.0222 -1.4914
    4MOL     H6 7204   4.893   2.898   1.378 -2.3819  0.0797  1.1843
    4MOL     H7 7205   5.066   2.988   0.926 -1.5626 -0.0324 -0.6181
    4MOL     H8 7206   5.196   3.071   1.115 -1.3102  2.4192 -1.6697
    4MOL     H9 7207   5.525   3.013   1.487 -0.6938  1.0076  0.7898
    4MOL    H10 7208   5.378   3.235   1.832 -1.2965  0.8731  2.6506
    4MOL    H11 7209   5.148   3.200   1.760 -1.6521  2.6771  0.8569
    4MOL    H12 7210   5.889   3.082   1.649  0.2608 -2.2305  3.4398
    4MOL    H13 7211   5.519   2.880   1.718 -0.1923  0.8670  0.0081
    4MOL    H14 7212   6.012   2.865   1.637 -0.2636 -1.4144 -1.5886
    4MOL     O4 7213   5.539   2.576   1.742  0.6825 -0.1105  0.1653
    4MOL    H15 7214   4.686   2.680   1.120  1.4730 -0.7008  0.3566
    4MOL    H16 7215   4.721   2.527   1.308 -0.3871 -0.0498  2.0341
    4MOL    H17 7216   5.012   2.523   0.908 -0.5457  1.8351  0.2552
    4MOL    H18 7217   4.875   1.785   1.358  3.1582  1.1588 -1.4386
    4MOL    H19 7218   4.950   1.989   1.460 -0.9849 -0.9996  0.9214
    4MOL    H20 7219   4.710   2.018   1.021 -2.1758 -2.2361 -2.4473
    4MOL    H21 7220   4.785   2.221   1.137 -1.0597 -0.1729  0.8085
    4MOL    H22 7221   4.855   2.191   1.588 -0.1218 -0.8736  1.3594
    4MOL    H23 7222   5.071   2.388   1.082 -0.0671 -0.1796 -0.5574
    4MOL    F12 7223   4.819   2.787   0.505 -0.1186 -0.0951 -0.4331
    4MOL    C47 7224   4.733   2.582   0.706  0.0025  0.0428  0.0431
    4MOL    H24 7225   4.815   2.571   0.630  0.7409 -0.2185  0.6930
    4MOL    H25 7226   4.645   2.583   0.638 -1.9804  1.5850 -2.4185
    4MOL    H26 7227   4.720   2.501   0.774  0.9317  1.0559  0.2745
    4MOL     N1 7228   6.307   2.332   1.711 -0.2847  0.2455  0.1268
    4MOL     N2 7229   6.311   2.224   1.917  0.0408 -0.0414 -0.4001
    4MOL     C1 7230   6.259   2.215   1.776 -0.2694 -0.0253 -0.1703
    4MOL     C2 7231   6.295   2.137   2.024 -0.6186 -0.4016  0.4211
    4MOL     C3 7232   6.230   2.010   2.008  0.4664  0.0722 -0.5683
    4MOL     C4 7233   6.213   1.927   2.122 -0.4338 -0.2647 -0.0879
    4MOL     C5 7234   6.263   1.965   2.246  0.0576 -0.4247  0.6897
    4MOL     C6 7235   6.334   2.084   2.264  0.3631 -0.0235  0.2072
    4MOL     C7 7236   6.345   2.169   2.153  0.2953 -0.0751  0.0966
    4MOL     N3 7237   6.243   1.882   2.357  0.0056 -0.1564 -0.5855
    4MOL     C8 7238   6.155   1.913   2.462  0.3234  0.1416 -0.0536
    4MOL     C9 7239   6.155   1.787   2.544  0.4093 -0.4389  0.0498
    4MOL    C10 7240   6.241   1.696   2.487 -0.1829 -0.2928 -0.1026
    4MOL    C11 7241   6.299   1.754   2.366  0.2734 -0.1927  0.3805
    4MOL     O1 7242   6.371   1.701   2.284  0.2918  0.1839 -0.0181
    4MOL    C12 7243   6.097   1.766   2.668  0.0227  0.6149  0.2471
    4MOL    C13 7244   6.115   1.639   2.733  0.3723 -0.2132  0.2520
    4MOL    C14 7245   6.206   1.546   2.674  0.2892  0.9740  1.1376
    4MOL    C15 7246   6.272   1.577   2.550  0.2494 -0.7900  0.3894
    4MOL    C16 7247   5.884   1.652   2.823  0.2806 -0.3764  0.1837
    4MOL    C17 7248   5.796   1.702   2.918 -0.2350  1.3836 -0.0999
    4MOL    C18 7249   5.663   1.727   2.879  0.7422  0.1220 -0.0558
    4MOL    C19 7250   5.834   1.625   2.691  0.3700  0.2992 -0.5253
    4MOL    C20 7251   5.617   1.695   2.752 -1.0648 -0.1231  0.6616
    4MOL    C21 7252   5.699   1.648   2.653 -0.0473  0.0981 -0.0473
    4MOL    C22 7253   6.025   1.616   2.852  0.0203 -0.1614  0.0029
    4MOL    C23 7254   6.026   1.469   2.888  0.1787  0.3858 -0.9641
    4MOL     F1 7255   5.925   1.436   2.969 -0.4274 -0.2598  0.3457
    4MOL     F2 7256   6.146   1.422   2.934 -0.0239  0.6110  0.5296
    4MOL     F3 7257   6.005   1.390   2.782 -0.4551 -0.1774  0.2935
    4MOL    C24 7258   6.078   1.691   2.975  0.0911 -0.1540 -0.1233
    4MOL     F4 7259   6.208   1.673   2.970  0.4391 -0.2548 -0.0478
    4MOL     F5 7260   6.028   1.654   3.097 -0.1663 -0.4112 -0.1973
    4MOL     F6 7261   6.066   1.821   2.963  0.3364 -1.0256 -0.0867
    4MOL     O2 7262   6.082   2.013   2.467  0.1151 -0.2618 -0.5574
    4MOL    C25 7263   5.538   1.760   2.959  0.5886 -0.6359  0.2632
    4MOL     N4 7264   5.433   1.751   2.873  0.1660 -0.3382  0.3299
    4MOL    C26 7265   5.473   1.729   2.745  0.0341  0.0403  0.1424
    4MOL     O3 7266   5.401   1.745   2.645 -0.1853  0.3469  0.4638
    4MOL    C27 7267   6.160   2.125   1.717  0.0908  0.2882 -0.9693
    4MOL    C28 7268   6.042   2.105   1.790  0.2400 -0.0846 -0.3462
    4MOL    C29 7269   6.175   2.065   1.595  1.3192  0.0097  0.1737
    4MOL    C30 7270   5.935   2.031   1.741 -0.4741 -0.1552  0.8011
    4MOL    C31 7271   6.059   1.983   1.547 -0.2182 -0.1778 -0.3881
    4MOL    C32 7272   5.940   1.969   1.613 -0.0616 -0.2799 -0.0342
    4MOL    C33 7273   5.825   1.922   1.547 -0.2919 -0.0756 -0.3089
    4MOL     N5 7274   5.713   2.003   1.521  0.0567 -0.5437 -0.5544
    4MOL     N6 7275   5.798   1.797   1.487 -0.0677 -0.0695  0.2774
    4MOL    C34 7276   5.620   1.929   1.450 -0.4765 -0.3382 -0.0336
    4MOL    C35 7277   5.671   1.807   1.426  0.4767  0.1697  0.2867
    4MOL    C36 7278   5.903   1.713   1.423 -0.3653  0.1302  0.5655
    4MOL     H1 7279   5.974   1.665   1.498 -0.8932 -1.0384  0.7615
    4MOL     H2 7280   5.954   1.779   1.352 -1.7535 -2.0894  0.9234
    4MOL     H3 7281   5.848   1.632   1.373 -2.3389 -0.2992  1.6416
    4MOL    C37 7282   5.711   2.136   1.554  0.5894 -0.6589  0.0868
    4MOL    C38 7283   5.797   2.226   1.491 -0.3743  0.8017 -0.6272
    4MOL    C39 7284   5.811   2.357   1.528 -0.0828 -0.4135 -0.0117
    4MOL    C40 7285   5.742   2.401   1.646  0.0338  0.1037 -0.5515
    4MOL    C41 7286   5.658   2.306   1.714 -0.2935  0.1483  0.2783
    4MOL    C42 7287   5.639   2.178   1.667 -0.3702 -0.2178 -0.0864
    4MOL    C43 7288   5.594   1.687   1.363  0.3508 -0.1666  0.8000
    4MOL     F7 7289   5.460   1.691   1.357  0.6332 -0.4476  0.2258
    4MOL     F8 7290   5.625   1.570   1.425  0.4007 -0.1837  0.1028
    4MOL     F9 7291   5.637   1.668   1.235 -0.3690  0.2595  0.4117
    4MOL    C44 7292   6.392   2.339   1.915  0.4540  0.2060 -0.4259
    4MOL    C45 7293   6.381   2.412   1.806 -0.1147  0.1868  0.1120
    4MOL    C46 7294   6.444   2.547   1.781 -0.0311  0.1338  0.3290
    4MOL    F10 7295   6.444   2.623   1.893 -0.2526 -0.1836  0.3561
    4MOL    F11 7296   6.570   2.535   1.740  0.4757 -0.0742  0.1550
    4MOL     H4 7297   6.446   2.369   2.004 -0.5316 -0.2685 -0.2692
    4MOL     H5 7298   6.181   1.982   1.920  0.4231  1.0605  0.1376
    4MOL     H6 7299   6.163   1.834   2.116 -1.3484  0.8129  3.2651
    4MOL     H7 7300   6.395   2.263   2.160  2.2143 -1.1858  0.3564
    4MOL     H8 7301   6.369   2.100   2.362 -0.7485 -2.5333 -1.3553
    4MOL     H9 7302   6.036   1.844   2.721  2.3232  2.1299  0.7624
    4MOL    H10 7303   6.232   1.449   2.712 -0.8485 -1.8036 -1.7561
    4MOL    H11 7304   6.351   1.509   2.525  1.7170 -0.7302 -0.8753
    4MOL    H12 7305   5.896   1.563   2.627  1.7807 -1.0444 -0.1536
    4MOL    H13 7306   5.830   1.727   3.011 -0.0370 -0.9658 -1.6265
    4MOL    H14 7307   5.656   1.614   2.557 -3.2056 -0.9129 -1.8438
    4MOL     O4 7308   5.532   1.782   3.081  0.6834 -0.7076  0.5334
    4MOL    H15 7309   6.033   2.147   1.890 -0.3771 -0.3171 -0.8684
    4MOL    H16 7310   5.850   2.022   1.800 -0.2940 -1.1041  0.2933
    4MOL    H17 7311   6.263   2.073   1.534 -1.1248 -3.0800 -1.1453
    4MOL    H18 7312   5.864   2.425   1.464 -1.3202  2.0632 -0.4344
    4MOL    H19 7313   5.836   2.188   1.392  0.0515 -1.7688 -1.5497
    4MOL    H20 7314   5.613   2.339   1.800 -0.2209 -0.7854  2.9373
    4MOL    H21 7315   5.578   2.108   1.716  3.4946 -1.0523 -0.8026
    4MOL    H22 7316   5.523   1.967   1.427  2.6892 -2.3487  1.9722
    4MOL    H23 7317   6.078   1.939   1.453  0.0025  1.3941 -1.8230
    4MOL    F12 7318   6.377   2.631   1.694  0.1261 -0.0856 -0.6146
    4MOL    C47 7319   6.261   2.381   1.581 -0.3293 -0.2285  0.2227
    4MOL    H24 7320   6.339   2.434   1.532 -1.0505 -0.4567  2.6304
    4MOL    H25 7321   6.174   2.447   1.597  1.2610  1.7564  1.1417
    4MOL    H26 7322   6.236   2.297   1.519  2.0712 -0.0363  0.3209
    4MOL     N1 7323   5.534   2.078   2.466  0.0564  0.3646  0.5374
    4MOL     N2 7324   5.402   2.182   2.320  0.2124 -0.3436  0.3586
    4MOL     C1 7325   5.401   2.121   2.445 -0.4846  0.7754  0.5118
    4MOL     C2 7326   5.288   2.222   2.252  0.0698  0.0664  0.3664
    4MOL     C3 7327   5.180   2.132   2.256  0.0894  0.6144  0.2415
    4MOL     C4 7328   5.055   2.174   2.216 -0.0131 -0.1418  0.2769
    4MOL     C5 7329   5.034   2.299   2.154 -0.0433 -0.5415  0.2562
    4MOL     C6 7330   5.144   2.391   2.147 -0.3352 -0.6391  0.3259
    4MOL     C7 7331   5.273   2.352   2.197 -0.3177  0.4060  0.4537
    4MOL     N3 7332   4.900   2.332   2.113  0.5032  0.2858 -0.0654
    4MOL     C8 7333   4.828   2.433   2.173 -0.8711 -0.1974 -0.4592
    4MOL     C9 7334   4.690   2.424   2.101 -1.3933  0.3795 -0.1006
    4MOL    C10 7335   4.695   2.321   2.004 -0.1227  0.3260 -0.6954
    4MOL    C11 7336   4.832   2.258   2.016 -1.0245  0.2745 -0.5375
    4MOL     O1 7337   4.873   2.169   1.947  0.1037  0.0454 -0.5167
    4MOL    C12 7338   4.571   2.492   2.125 -0.5464  0.0736  0.4537
    4MOL    C13 7339   4.459   2.465   2.048  0.1184  0.6647 -0.2531
    4MOL    C14 7340   4.465   2.361   1.950  0.5701  0.2897 -0.3066
    4MOL    C15 7341   4.581   2.281   1.936 -0.6826 -0.2614  0.3366
    4MOL    C16 7342   4.318   2.582   2.222 -0.3754  0.6013  0.1171
    4MOL    C17 7343   4.343   2.476   2.312  0.1034 -0.4457 -0.2941
    4MOL    C18 7344   4.336   2.501   2.448  0.5991  0.4635  0.2104
    4MOL    C19 7345   4.265   2.706   2.271  0.5587  0.0632  0.3647
    4MOL    C20 7346   4.299   2.624   2.493 -0.1706 -0.2872  0.0301
    4MOL    C21 7347   4.251   2.721   2.407  0.4587 -0.0056 -0.0534
    4MOL    C22 7348   4.332   2.549   2.066  0.2008 -0.1681 -0.0459
    4MOL    C23 7349   4.343   2.669   1.970  0.4768 -0.2417 -0.2869
    4MOL     F1 7350   4.443   2.744   2.022  0.0694 -0.1420  0.2177
    4MOL     F2 7351   4.234   2.750   1.973 -0.4362  0.0776  0.3941
    4MOL     F3 7352   4.357   2.635   1.842  0.0214 -0.0692 -0.0748
    4MOL    C24 7353   4.208   2.460   2.034  0.1239  0.5062 -0.6787
    4MOL     F4 7354   4.107   2.545   2.045  0.4134 -0.3497 -0.9185
    4MOL     F5 7355   4.183   2.363   2.123  0.1282 -0.0430  0.0462
    4MOL     F6 7356   4.194   2.407   1.910  0.4334  0.1256 -0.1218
    4MOL     O2 7357   4.862   2.508   2.262  0.4410  0.0676 -0.0620
    4MOL    C25 7358   4.395   2.425   2.561 -0.0448 -0.0432 -0.3570
    4MOL     N4 7359   4.392   2.511   2.666 -0.9638 -0.8871 -0.5351
    4MOL    C26 7360   4.330   2.633   2.639  0.3730  0.4335  0.1800
    4MOL     O3 7361   4.328   2.738   2.706  0.4560  0.9686 -0.1844
    4MOL    C27 7362   5.295   2.089   2.529 -0.3897 -0.0219  0.1690
    4MOL    C28 7363   5.241   1.961   2.530  0.2672 -1.1575  0.3001
    4MOL    C29 7364   5.239   2.197   2.595  0.6242 -0.3606 -0.6117
    4MOL    C30 7365   5.110   1.950   2.582 -0.0441  0.3662 -1.0180
    4MOL    C31 7366   5.118   2.170   2.666 -0.4715  0.1768  0.0603
    4MOL    C32 7367   5.052   2.046   2.655  0.5331 -0.3764  0.2835
    4MOL    C33 7368   4.932   2.026   2.723  0.1384  0.6743 -1.1584
    4MOL     N5 7369   4.925   1.939   2.834 -0.1670 -0.2579 -0.1594
    4MOL     N6 7370   4.803   2.079   2.695 -1.0087 -0.2158  0.8921
    4MOL    C34 7371   4.793   1.938   2.869  0.5183 -0.7774 -0.2885
    4MOL    C35 7372   4.720   2.008   2.786 -0.7170  0.5438 -0.1751
    4MOL    C36 7373   4.753   2.160   2.576 -0.4243  0.3276 -0.3231
    4MOL     H1 7374   4.684   2.096   2.530 -0.4017 -0.1153  1.8815
    4MOL     H2 7375   4.839   2.186   2.508 -1.5733  0.5261 -1.9497
    4MOL     H3 7376   4.705   2.255   2.610  1.0525  1.8309  2.6141
    4MOL    C37 7377   5.043   1.884   2.892 -0.9904 -0.1059  0.3762
    4MOL    C38 7378   5.151   1.977   2.917  0.5962  0.4549  0.2421
    4MOL    C39 7379   5.284   1.933   2.922  0.2330  0.2634  0.8681
    4MOL    C40 7380   5.304   1.792   2.909  0.0193 -0.0442  0.5947
    4MOL    C41 7381   5.197   1.702   2.903 -0.0052 -0.4540  0.4534
    4MOL    C42 7382   5.062   1.747   2.898 -0.0702  0.3413  0.3160
    4MOL    C43 7383   4.571   2.047   2.786  0.1357 -0.6503 -0.2360
    4MOL     F7 7384   4.512   2.028   2.668 -0.1723  0.0985 -0.3623
    4MOL     F8 7385   4.556   2.170   2.834  0.0471 -0.3852 -0.1844
    4MOL     F9 7386   4.513   1.960   2.873  0.7241 -0.4237 -0.0250
    4MOL    C44 7387   5.536   2.216   2.290  0.4386 -0.0332 -0.1333
    4MOL    C45 7388   5.618   2.153   2.377  0.1393 -0.2143 -0.4890
    4MOL    C46 7389   5.772   2.162   2.386  1.1218  0.2145 -0.6390
    4MOL    F10 7390   5.814   2.039   2.424 -0.4093 -0.7374 -0.0864
    4MOL    F11 7391   5.829   2.189   2.266  0.5195 -0.3645  0.5314
    4MOL     H4 7392   5.557   2.292   2.211  0.5598  1.4622  1.2234
    4MOL     H5 7393   5.198   2.035   2.303 -0.6268 -2.4280  0.1092
    4MOL     H6 7394   4.977   2.107   2.250 -0.7449  3.4642  0.0555
    4MOL     H7 7395   5.353   2.420   2.189 -0.7482 -1.5056  1.7101
    4MOL     H8 7396   5.127   2.491   2.109 -2.2867  2.0910  1.4582
    4MOL     H9 7397   4.570   2.569   2.204 -0.8557 -1.6481 -1.2518
    4MOL    H10 7398   4.392   2.341   1.877  2.1995  1.0126  2.3312
    4MOL    H11 7399   4.584   2.198   1.858  0.5528  1.5264 -1.0003
    4MOL    H12 7400   4.228   2.785   2.206  0.9151  0.3026  1.7504
    4MOL    H13 7401   4.388   2.379   2.279 -0.0281  1.8858  0.7209
    4MOL    H14 7402   4.221   2.817   2.452  0.7426  0.0491  1.5485
    4MOL     O4 7403   4.437   2.314   2.555 -0.0053  0.4003 -0.3031
    4MOL    H15 7404   5.290   1.892   2.466  0.3751  0.3942  2.0683
    4MOL    H16 7405   5.046   1.862   2.571  0.2728  0.9505  0.9044
    4MOL    H17 7406   5.285   2.300   2.603 -0.1430  0.7037 -0.8966
    4MOL    H18 7407   5.371   2.003   2.918  0.1443 -1.6725  0.3760
    4MOL    H19 7408   5.136   2.085   2.909 -2.2828  0.2750 -1.5732
    4MOL    H20 7409   5.225   1.595   2.885  1.8541 -0.1157  2.0347
    4MOL    H21 7410   4.980   1.681   2.873  1.8622  0.5908  1.4778
    4MOL    H22 7411   4.770   1.885   2.956  2.3516 -1.1321 -0.1965
    4MOL    H23 7412   5.072   2.243   2.730  0.7528 -0.2604 -2.9040
    4MOL    F12 7413   5.810   2.243   2.489 -0.3038 -0.1648  0.0884
    4MOL    C47 7414   5.581   2.054   2.605  0.2164  0.4553 -0.3251
    4MOL    H24 7415   5.580   2.150   2.648 -0.6397 -1.4854  0.9750
    4MOL    H25 7416   5.688   2.016   2.609 -0.4262 -2.3324  0.7380
    4MOL    H26 7417   5.504   1.997   2.657 -0.2955 -0.0342 -0.2271
    4MOL     N1 7418   4.867   1.798   3.175 -0.1225  0.0972  0.1258
    4MOL     N2 7419   5.055   1.889   3.263 -0.6880 -0.2587 -0.7166
    4MOL     C1 7420   4.923   1.920   3.226 -0.5161 -0.3730 -0.3145
    4MOL     C2 7421   5.132   1.980   3.334  0.5514 -0.5525  0.5330
    4MOL     C3 7422   5.164   2.102   3.278 -0.0267  0.5555 -0.3971
    4MOL     C4 7423   5.248   2.184   3.343  0.4482 -0.2809 -0.0110
    4MOL     C5 7424   5.286   2.154   3.475  0.2306  0.3322  0.2570
    4MOL     C6 7425   5.240   2.040   3.542  0.2648  0.4569 -0.5665
    4MOL     C7 7426   5.168   1.946   3.470  1.2356 -0.8852  0.0594
    4MOL     N3 7427   5.372   2.241   3.543 -0.0320 -0.4068  0.4113
    4MOL     C8 7428   5.321   2.327   3.641 -0.2239  0.1631 -1.0983
    4MOL     C9 7429   5.437   2.395   3.699 -0.1291  0.1984 -0.3149
    4MOL    C10 7430   5.551   2.344   3.636  0.1606  0.2991 -1.1154
    4MOL    C11 7431   5.511   2.252   3.531 -0.2335  0.5176  0.1555
    4MOL     O1 7432   5.576   2.182   3.460  0.4627 -0.1437 -0.3991
    4MOL    C12 7433   5.437   2.465   3.819 -0.3508 -0.2516  0.7590
    4MOL    C13 7434   5.561   2.509   3.869  0.1078  0.5591  0.5152
    4MOL    C14 7435   5.683   2.475   3.797  0.7301 -0.7029  0.0474
    4MOL    C15 7436   5.678   2.391   3.684  1.0335  0.0385  0.4179
    4MOL    C16 7437   5.483   2.458   4.104 -0.0687  0.6837 -0.4224
    4MOL    C17 7438   5.525   2.315   4.090 -0.2238  0.0378 -0.3775
    4MOL    C18 7439   5.441   2.223   4.154 -0.1452  0.0999  0.5560
    4MOL    C19 7440   5.380   2.492   4.197 -0.2732  0.1777  0.2641
    4MOL    C20 7441   5.337   2.258   4.244 -0.4632  0.0308  0.2909
    4MOL    C21 7442   5.309   2.393   4.269  0.1087 -0.7253  0.5546
    4MOL    C22 7443   5.557   2.561   4.015 -0.1456  0.6013 -0.0654
    4MOL    C23 7444   5.698   2.582   4.071 -0.2715 -0.0482 -0.0763
    4MOL     F1 7445   5.693   2.584   4.205 -0.0035 -0.7024  0.7009
    4MOL     F2 7446   5.771   2.693   4.025 -0.3935 -0.3786  0.2470
    4MOL     F3 7447   5.779   2.478   4.057  0.0361 -0.2960  0.4102
    4MOL    C24 7448   5.484   2.700   4.007 -0.5529 -0.5624 -0.0843
    4MOL     F4 7449   5.546   2.775   3.907 -0.4856 -0.4528  0.0193
    4MOL     F5 7450   5.494   2.768   4.123 -0.1817 -0.0441  0.1458
    4MOL     F6 7451   5.357   2.694   3.975  0.2680  0.6095  0.2946
    4MOL     O2 7452   5.202   2.338   3.662 -0.0674  0.1522 -0.1412
    4MOL    C25 7453   5.433   2.074   4.129  0.7748 -0.1267 -0.0121
    4MOL     N4 7454   5.326   2.026   4.203  0.1322 -0.3221  0.3619
    4MOL    C26 7455   5.261   2.130   4.266 -0.0091 -0.0303 -0.6525
    4MOL     O3 7456   5.162   2.113   4.340  0.2122 -0.1421 -0.3683
    4MOL    C27 7457   4.880   2.046   3.210  0.5396  0.0592  0.2102
    4MOL    C28 7458   4.902   2.123   3.097  0.5846 -0.3198  0.4686
    4MOL    C29 7459   4.801   2.102   3.308 -0.0886 -0.1799  0.5155
    4MOL    C30 7460   4.871   2.258   3.098  0.9090 -0.5650  0.3691
    4MOL    C31 7461   4.769   2.240   3.307 -0.0915 -0.4290 -0.0438
    4MOL    C32 7462   4.805   2.322   3.199 -0.0986  0.6707 -0.0610
    4MOL    C33 7463   4.794   2.462   3.207  0.3882  0.8658  0.1078
    4MOL     N5 7464   4.729   2.550   3.114  0.2062  0.0044 -0.0855
    4MOL     N6 7465   4.903   2.522   3.264 -0.5942  0.4835  0.1845
    4MOL    C34 7466   4.810   2.659   3.123  0.0357  0.2560  0.3412
    4MOL    C35 7467   4.909   2.647   3.202 -0.2197  0.0070  0.0279
    4MOL    C36 7468   5.018   2.455   3.327 -0.3626 -0.0274 -0.6938
    4MOL     H1 7469   5.076   2.541   3.368 -0.5759  0.7919 -2.9118
    4MOL     H2 7470   5.071   2.405   3.244 -0.7518  1.2427 -3.0548
    4MOL     H3 7471   4.976   2.377   3.401  4.2782  0.3037  1.0482
    4MOL    C37 7472   4.647   2.523   3.004 -0.1331 -0.8274 -0.0987
    4MOL    C38 7473   4.508   2.524   3.020  0.4821  0.4649  0.6394
    4MOL    C39 7474   4.418   2.517   2.912 -0.1807  0.0789  0.1961
    4MOL    C40 7475   4.474   2.502   2.780 -0.1705 -1.1632 -0.8908
    4MOL    C41 7476   4.611   2.505   2.766  0.1081 -0.0596 -1.0138
    4MOL    C42 7477   4.694   2.519   2.877 -0.0529  0.0629 -0.0370
    4MOL    C43 7478   5.019   2.746   3.216  0.6090 -0.2824  0.5511
    4MOL     F7 7479   5.147   2.693   3.230  0.1695  0.4416  0.1583
    4MOL     F8 7480   4.987   2.830   3.312 -0.1148  0.3386  0.0903
    4MOL     F9 7481   5.023   2.822   3.098 -0.3383 -0.2460 -0.3514
    4MOL    C44 7482   5.065   1.749   3.255 -1.8502 -0.2045 -0.3149
    4MOL    C45 7483   4.962   1.695   3.205 -0.0167  0.3068  0.0461
    4MOL    C46 7484   4.935   1.544   3.203 -0.3762  0.6724 -0.2348
    4MOL    F10 7485   4.829   1.506   3.272 -0.2995 -0.4195 -0.2886
    4MOL    F11 7486   4.926   1.498   3.070 -0.3082  0.0669  0.1974
    4MOL     H4 7487   5.148   1.701   3.304  1.8508 -3.6093 -0.6450
    4MOL     H5 7488   5.124   2.129   3.180  2.1999  0.6637  1.5177
    4MOL     H6 7489   5.282   2.272   3.297 -1.5606  0.1171  0.6532
    4MOL     H7 7490   5.131   1.854   3.511 -1.6143  1.9090  0.5591
    4MOL     H8 7491   5.275   2.025   3.645 -0.5886  2.5517 -0.2956
    4MOL     H9 7492   5.342   2.461   3.871 -0.2618  0.4353 -3.4952
    4MOL    H10 7493   5.779   2.499   3.831 -0.2801 -0.7910 -0.4191
    4MOL    H11 7494   5.773   2.356   3.650  1.1554 -2.4934  2.3744
    4MOL    H12 7495   5.355   2.599   4.221  0.3051 -0.1491  3.1518
    4MOL    H13 7496   5.603   2.296   4.019  0.3117  2.9901  0.0194
    4MOL    H14 7497   5.222   2.421   4.329  1.8921 -0.4253 -0.2874
    4MOL     O4 7498   5.515   2.011   4.064 -0.3842  1.1638  0.1869
    4MOL    H15 7499   4.972   2.085   3.029  0.1455 -0.6355 -0.1004
    4MOL    H16 7500   4.915   2.311   3.016  1.0160  1.6595  2.1491
    4MOL    H17 7501   4.767   2.047   3.391  0.6289 -1.7738  1.3496
    4MOL    H18 7502   4.314   2.521   2.937  3.0769 -0.8710 -1.9694
    4MOL    H19 7503   4.468   2.548   3.114 -2.4070 -0.5215 -2.0246
    4MOL    H20 7504   4.653   2.512   2.659 -0.6781  0.8216 -0.8499
    4MOL    H21 7505   4.800   2.531   2.852  5.1715  1.0767 -0.4493
    4MOL    H22 7506   4.788   2.736   3.058 -1.1617 -0.5735 -1.3621
    4MOL    H23 7507   4.706   2.283   3.383 -1.0023  0.5317 -0.0481
    4MOL    F12 7508   5.043   1.487   3.262 -0.0383 -0.2172 -0.6845
    4MOL    C47 7509   4.732   1.780   3.200  0.6350 -0.1645 -0.0988
    4MOL    H24 7510   4.705   1.681   3.221 -2.6411  0.9165  1.1371
    4MOL    H25 7511   4.676   1.823   3.114  0.1261  0.4731 -1.2446
    4MOL    H26 7512   4.710   1.844   3.286  0.6672  0.7064  0.3342
    4MOL     N1 7513   5.000   1.999   4.662 -0.0828  0.0240 -0.0347
    4MOL     N2 7514   4.791   2.082   4.600 -0.5820  0.8408 -0.6646
    4MOL     C1 7515   4.882   1.966   4.585  0.9921 -0.1311  0.6421
    4MOL     C2 7516   4.696   2.113   4.503 -0.0666  0.4868 -0.0551
    4MOL     C3 7517   4.745   2.171   4.388  0.1166 -0.3305  0.2559
    4MOL     C4 7518   4.669   2.163   4.271 -0.0856 -0.2147  0.1851
    4MOL     C5 7519   4.544   2.094   4.279 -0.1323  0.0727 -1.0802
    4MOL     C6 7520   4.488   2.056   4.405 -0.7453 -0.2981  0.2591
    4MOL     C7 7521   4.561   2.068   4.521  0.1819  0.5656  0.3674
    4MOL     N3 7522   4.490   2.042   4.161  0.2964  0.3626 -0.1890
    4MOL     C8 7523   4.379   2.101   4.102  0.1954  0.1102 -0.7108
    4MOL     C9 7524   4.359   2.027   3.975 -0.5870  0.0520  0.1898
    4MOL    C10 7525   4.448   1.915   3.979  0.3421 -0.3746 -0.4451
    4MOL    C11 7526   4.536   1.930   4.100 -0.0443 -0.0023  0.6453
    4MOL     O1 7527   4.629   1.863   4.136  0.1097  0.3255 -0.1488
    4MOL    C12 7528   4.257   2.029   3.879 -0.0813 -0.1219 -0.3467
    4MOL    C13 7529   4.257   1.938   3.774 -0.7424  0.2987 -0.1259
    4MOL    C14 7530   4.356   1.837   3.774 -0.3583  0.4408  1.6776
    4MOL    C15 7531   4.449   1.822   3.877  0.0934 -0.5332 -0.4755
    4MOL    C16 7532   4.248   1.960   3.534 -0.1905 -0.4811  0.3598
    4MOL    C17 7533   4.230   1.885   3.416  0.8319 -0.4407 -0.0811
    4MOL    C18 7534   4.311   1.898   3.309 -0.0365 -0.3325 -0.2328
    4MOL    C19 7535   4.340   2.072   3.526  0.3410  0.7401 -0.0811
    4MOL    C20 7536   4.405   2.003   3.304  0.2935  0.1697  0.1817
    4MOL    C21 7537   4.422   2.089   3.413 -0.1765 -0.1609 -0.1022
    4MOL    C22 7538   4.154   1.946   3.654  0.4356 -0.6067  0.8234
    4MOL    C23 7539   4.062   1.822   3.664 -0.0496 -0.6335  0.0127
    4MOL     F1 7540   4.019   1.816   3.794  0.2690  0.0436 -0.1786
    4MOL     F2 7541   4.122   1.709   3.645  0.2247  0.2207  0.2072
    4MOL     F3 7542   3.958   1.829   3.572 -0.6277 -0.0152 -0.3206
    4MOL    C24 7543   4.059   2.071   3.652 -0.4628 -0.4808 -1.3669
    4MOL     F4 7544   3.987   2.086   3.538  0.3414  0.0786  0.2701
    4MOL     F5 7545   4.127   2.183   3.674  0.2075  0.0162 -0.0028
    4MOL     F6 7546   3.967   2.067   3.751 -0.0181 -0.2818  0.3527
    4MOL     O2 7547   4.319   2.202   4.133 -0.2482  0.4380 -0.3297
    4MOL    C25 7548   4.327   1.824   3.177  0.1998 -0.2939 -0.2190
    4MOL     N4 7549   4.429   1.890   3.111 -0.3128 -0.8111 -0.0454
    4MOL    C26 7550   4.479   2.001   3.177 -0.0992  0.4821 -0.1957
    4MOL     O3 7551   4.571   2.070   3.135 -0.0672 -0.4322 -0.4885
    4MOL    C27 7552   4.878   1.887   4.475 -0.1401 -0.8469 -0.3058
    4MOL    C28 7553   4.925   1.930   4.356  0.0694  0.0663 -0.3146
    4MOL    C29 7554   4.825   1.752   4.488  0.2588 -0.2033  0.2730
    4MOL    C30 7555   4.917   1.844   4.247  0.0628  0.2257  0.2407
    4MOL    C31 7556   4.816   1.671   4.379  0.0108 -0.1558  0.5197
    4MOL    C32 7557   4.862   1.713   4.254 -0.2543 -0.4808 -0.0691
    4MOL    C33 7558   4.882   1.621   4.150  0.0849 -0.1938 -0.2683
    4MOL     N5 7559   5.006   1.600   4.097  0.0135 -0.2501  0.3230
    4MOL     N6 7560   4.800   1.518   4.105  0.7498  0.5878 -0.5151
    4MOL    C34 7561   4.999   1.488   4.014  1.2644  1.0538  0.4993
    4MOL    C35 7562   4.876   1.437   4.018 -0.4854  0.1960  0.0889
    4MOL    C36 7563   4.661   1.541   4.072 -0.1123  0.5848 -0.0507
    4MOL     H1 7564   4.631   1.644   4.085 -0.1858 -0.8174 -1.0678
    4MOL     H2 7565   4.600   1.469   4.123  1.9729  1.0591 -0.1718
    4MOL     H3 7566   4.648   1.511   3.971  0.4322 -0.1116 -1.5397
    4MOL    C37 7567   5.114   1.682   4.117  0.1308 -0.8890  1.0622
    4MOL    C38 7568   5.163   1.697   4.247  0.1705  0.5444 -0.2453
    4MOL    C39 7569   5.234   1.808   4.283 -0.7154  0.2303 -0.3731
    4MOL    C40 7570   5.266   1.900   4.179  0.4325 -0.5167  0.3669
    4MOL    C41 7571   5.214   1.884   4.049  0.2353  0.4971 -1.0327
    4MOL    C42 7572   5.141   1.770   4.013  0.0592 -0.9346 -0.5812
    4MOL    C43 7573   4.826   1.305   3.958 -0.1067  0.1777 -0.6572
    4MOL     F7 7574   4.916   1.211   3.925  0.1033  0.1642 -0.4285
    4MOL     F8 7575   4.756   1.327   3.845  0.1043 -0.0595  0.7532
    4MOL     F9 7576   4.743   1.241   4.044 -0.0590  0.3751  0.3316
    4MOL    C44 7577   4.864   2.173   4.676 -0.6352  0.0870 -0.6535
    4MOL    C45 7578   4.983   2.129   4.708  0.0502 -0.4711  0.2805
    4MOL    C46 7579   5.088   2.201   4.798  0.0844  0.1367 -0.1269
    4MOL    F10 7580   5.164   2.265   4.708 -0.1443 -0.3320 -0.2595
    4MOL    F11 7581   5.029   2.278   4.884  0.2623 -0.1601 -0.2959
    4MOL     H4 7582   4.825   2.263   4.708  1.4095 -1.6505 -0.5830
    4MOL     H5 7583   4.852   2.191   4.386  1.8347  0.0094 -3.2332
    4MOL     H6 7584   4.698   2.197   4.175 -2.4324 -0.1824  0.3155
    4MOL     H7 7585   4.531   2.016   4.610 -2.6624 -1.1695 -1.2079
    4MOL     H8 7586   4.383   2.014   4.403 -0.3272  1.4576 -2.0972
    4MOL     H9 7587   4.179   2.103   3.886  2.0114  0.0519 -0.2035
    4MOL    H10 7588   4.356   1.779   3.684 -2.3705  1.4644  3.0855
    4MOL    H11 7589   4.526   1.741   3.881 -2.2969 -0.9498  1.4959
    4MOL    H12 7590   4.354   2.135   3.612  2.2668  0.9606  0.0067
    4MOL    H13 7591   4.157   1.807   3.422  0.6391 -1.0267  0.7597
    4MOL    H14 7592   4.494   2.169   3.411  0.3483 -2.8988  1.3398
    4MOL     O4 7593   4.263   1.725   3.151 -0.5324 -0.1627  0.2306
    4MOL    H15 7594   4.963   2.033   4.354  1.6128 -1.3451 -0.9919
    4MOL    H16 7595   4.945   1.894   4.158 -0.2218 -0.5974  0.5458
    4MOL    H17 7596   4.783   1.723   4.585 -2.1170 -1.7564 -0.4579
    4MOL    H18 7597   5.257   1.821   4.389 -0.4303 -0.7008  0.7309
    4MOL    H19 7598   5.133   1.628   4.327  0.4755 -1.7661 -1.6783
    4MOL    H20 7599   5.218   1.968   3.978 -2.7561 -0.6563 -0.3763
    4MOL    H21 7600   5.105   1.771   3.910  0.4308 -0.0443  2.0584
    4MOL    H22 7601   5.083   1.441   3.966  3.7817 -0.5011  0.1856
    4MOL    H23 7602   4.772   1.573   4.388 -1.7034  1.8225  0.8634
    4MOL    F12 7603   5.167   2.113   4.869 -0.0931 -0.1320  0.0319
    4MOL    C47 7604   5.132   1.965   4.613 -0.2232 -0.2706  0.2988
    4MOL    H24 7605   5.197   1.924   4.689  1.7123 -2.8878 -0.1349
    4MOL    H25 7606   5.192   2.058   4.574  2.8453  0.6524  1.5121
    4MOL    H26 7607   5.117   1.882   4.538 -0.8433  0.8122 -2.4343
    4MOL    H27 7608   4.473   1.856   3.023  0.4423  1.9246  2.4743
    5MOL     N1 7609   2.316   5.146   1.883  0.2883 -0.2344  0.1379
    5MOL     N2 7610   2.439   5.219   2.059 -0.1796  0.3612 -0.3102
    5MOL     C1 7611   2.445   5.137   1.939  0.8960 -0.4303  0.9003
    5MOL     C2 7612   2.521   5.198   2.164 -0.5379 -0.3136 -0.5707
    5MOL     C3 7613   2.515   5.067   2.219  0.5782 -0.0377  0.6759
    5MOL     C4 7614   2.618   5.023   2.305  0.2243 -0.5789 -0.6381
    5MOL     C5 7615   2.725   5.107   2.329  0.4466 -0.1345 -0.3078
    5MOL     C6 7616   2.731   5.239   2.277  0.7685 -0.1116 -0.1612
    5MOL     C7 7617   2.631   5.285   2.188  0.0359 -0.4017  0.0793
    5MOL     N3 7618   2.822   5.058   2.411 -0.0383  0.4679  0.4979
    5MOL     C8 7619   2.830   5.094   2.542 -0.2506 -0.8854 -0.0193
    5MOL     C9 7620   2.938   5.009   2.599 -1.3869  0.0970  0.0987
    5MOL    C10 7621   2.997   4.946   2.490  0.1586  0.2258 -0.4879
    5MOL    C11 7622   2.920   4.973   2.366 -0.3605 -0.3094 -0.2850
    5MOL     O1 7623   2.926   4.923   2.254 -0.6755  0.3067 -0.0409
    5MOL    C12 7624   2.984   4.995   2.729 -0.4674  0.1173  0.1873
    5MOL    C13 7625   3.101   4.911   2.744 -0.6292 -0.6473 -1.2100
    5MOL    C14 7626   3.145   4.830   2.635 -0.1764 -0.0186  0.1821
    5MOL    C15 7627   3.098   4.852   2.504 -0.1936 -0.4169  0.1159
    5MOL    C16 7628   3.161   5.039   2.949  0.6193 -0.6504 -0.5484
    5MOL    C17 7629   3.192   5.143   2.869  0.2790 -0.3227 -0.4521
    5MOL    C18 7630   3.164   5.273   2.919 -0.2620 -0.6078 -0.3865
    5MOL    C19 7631   3.103   5.057   3.080  0.2764  0.2022 -0.0909
    5MOL    C20 7632   3.119   5.294   3.047  0.2696  0.7172 -0.5963
    5MOL    C21 7633   3.083   5.187   3.129  0.0771  0.1124  0.5682
    5MOL    C22 7634   3.169   4.899   2.884  1.1030 -0.2166  0.7580
    5MOL    C23 7635   3.098   4.785   2.957 -0.0240 -0.3026 -0.1349
    5MOL     F1 7636   2.971   4.815   2.971  0.6015 -0.1671 -0.1669
    5MOL     F2 7637   3.141   4.758   3.088  0.1013 -0.6398  0.1611
    5MOL     F3 7638   3.089   4.671   2.887 -0.1117 -0.3235 -0.1310
    5MOL    C24 7639   3.319   4.869   2.884  0.7371 -0.2229  0.1556
    5MOL     F4 7640   3.344   4.734   2.872 -0.2795  0.1728 -0.2950
    5MOL     F5 7641   3.389   4.893   2.998 -0.2943  0.3715  0.5286
    5MOL     F6 7642   3.383   4.935   2.780 -0.1410 -0.1731 -0.5749
    5MOL     O2 7643   2.771   5.178   2.603 -0.2939  0.5007 -1.0254
    5MOL    C25 7644   3.190   5.410   2.868  0.7282 -1.2483  0.6847
    5MOL     N4 7645   3.169   5.506   2.972 -0.1378 -0.6206  0.2635
    5MOL    C26 7646   3.110   5.437   3.076 -0.3176  0.1195 -1.0833
    5MOL     O3 7647   3.063   5.485   3.181 -0.2499  0.0345 -0.2836
    5MOL    C27 7648   2.557   5.074   1.886 -0.0697 -0.3144 -0.8402
    5MOL    C28 7649   2.550   4.935   1.864 -0.3967  0.3963 -0.5720
    5MOL    C29 7650   2.683   5.131   1.878  0.1520 -0.4455  0.2334
    5MOL    C30 7651   2.658   4.857   1.827 -0.2143 -0.0043  0.2116
    5MOL    C31 7652   2.794   5.055   1.837 -0.3186  0.1531  0.4494
    5MOL    C32 7653   2.786   4.919   1.817 -0.3736  0.1522 -0.0036
    5MOL    C33 7654   2.904   4.849   1.783 -0.1929  0.0736  0.2289
    5MOL     N5 7655   2.947   4.820   1.650 -0.5039  0.8388 -0.6124
    5MOL     N6 7656   2.978   4.767   1.871  0.1025 -0.4465 -0.0973
    5MOL    C34 7657   3.040   4.711   1.666  0.7359  0.0517  0.1871
    5MOL    C35 7658   3.059   4.682   1.791  0.2758  0.8971  0.2986
    5MOL    C36 7659   2.939   4.722   2.012  0.7965 -0.2581 -0.2994
    5MOL     H1 7660   2.843   4.781   2.041 -0.2121  0.1269  1.4075
    5MOL     H2 7661   3.009   4.747   2.086 -1.6090 -2.3980 -0.0659
    5MOL     H3 7662   2.943   4.616   2.014  3.4060 -0.9296 -1.9674
    5MOL    C37 7663   2.930   4.896   1.535 -0.2428  0.4814 -0.0182
    5MOL    C38 7664   3.027   4.988   1.494  0.1230 -0.0144 -0.1537
    5MOL    C39 7665   3.001   5.060   1.373  0.4716  0.1837 -0.0996
    5MOL    C40 7666   2.883   5.040   1.301  0.0082 -0.3824 -0.1741
    5MOL    C41 7667   2.786   4.954   1.346  0.1819 -0.3528 -0.1804
    5MOL    C42 7668   2.812   4.876   1.461 -0.3103  0.1099  0.1840
    5MOL    C43 7669   3.149   4.572   1.847  1.0549  0.0656 -0.0564
    5MOL     F7 7670   3.079   4.475   1.900  0.1367  0.0964  0.2280
    5MOL     F8 7671   3.226   4.620   1.946 -0.2511 -0.0549 -0.5450
    5MOL     F9 7672   3.238   4.524   1.751 -0.8475  0.4838 -0.1854
    5MOL    C44 7673   2.315   5.283   2.058 -0.7559  0.0439  0.3179
    5MOL    C45 7674   2.244   5.240   1.951 -0.0514 -0.8325 -0.6990
    5MOL    C46 7675   2.108   5.288   1.913 -0.2146  0.4381  0.1867
    5MOL    F10 7676   2.056   5.385   1.988 -0.4554  0.4642 -0.4664
    5MOL    F11 7677   2.099   5.325   1.785 -0.6096 -0.6878  0.2132
    5MOL     H4 7678   2.287   5.352   2.136  1.5907  0.3060  2.8269
    5MOL     H5 7679   2.425   5.006   2.198  0.1575  1.7152 -1.5224
    5MOL     H6 7680   2.624   4.921   2.343  0.5050 -0.6413  2.2217
    5MOL     H7 7681   2.658   5.378   2.136  1.4393 -0.7467 -1.2169
    5MOL     H8 7682   2.818   5.304   2.311  1.2892  0.0861 -1.0443
    5MOL     H9 7683   2.929   5.048   2.805  0.1047 -0.1089  1.5958
    5MOL    H10 7684   3.224   4.757   2.637  2.8706  2.0026 -0.8822
    5MOL    H11 7685   3.134   4.798   2.415 -2.3338 -0.7868  0.4818
    5MOL    H12 7686   3.084   4.970   3.149  1.2908  0.2835  1.6497
    5MOL    H13 7687   3.239   5.133   2.772  0.3883 -1.5088 -1.8113
    5MOL    H14 7688   3.036   5.201   3.227  0.3284  3.0468 -2.4982
    5MOL     O4 7689   3.225   5.426   2.753  0.4799  0.3183  0.1817
    5MOL    H15 7690   2.451   4.885   1.881 -1.2062  0.0396  1.4724
    5MOL    H16 7691   2.651   4.751   1.817 -0.2145 -1.1066  0.3810
    5MOL    H17 7692   2.691   5.228   1.919 -1.3878  0.2564 -1.4568
    5MOL    H18 7693   3.076   5.131   1.339  2.8894 -1.0857 -0.3085
    5MOL    H19 7694   2.867   5.089   1.205  1.0363  0.8839 -0.7198
    5MOL    H20 7695   3.116   4.998   1.550 -2.1130  1.5603 -0.6124
    5MOL    H21 7696   2.692   4.936   1.285 -1.4366 -1.8227  1.9539
    5MOL    H22 7697   2.740   4.800   1.492  0.0778  0.1602  0.6626
    5MOL    H23 7698   3.084   4.668   1.572  1.3254 -1.6349 -0.7958
    5MOL    H24 7699   2.901   5.100   1.834 -0.1649 -2.2874  2.3480
    5MOL    F12 7700   2.019   5.192   1.912 -0.1668  0.0885 -0.3775
    5MOL    C47 7701   2.283   5.108   1.743  0.4788  0.3499 -0.1692
    5MOL    H25 7702   2.267   5.196   1.674  1.2189  4.5310  1.4212
    5MOL    H26 7703   2.188   5.044   1.740 -3.4540 -1.8908  0.3022
    5MOL    H27 7704   2.355   5.044   1.694 -1.5223  0.3628 -2.3843
    5MOL     N1 7705   3.554   5.918   3.587  0.6101 -0.1357  0.7800
    5MOL     N2 7706   3.711   6.049   3.508  0.6717  0.0567  0.4479
    5MOL     C1 7707   3.576   6.015   3.493 -0.8902  0.1471  0.3683
    5MOL     C2 7708   3.781   6.114   3.403 -0.3432 -0.1711 -0.4822
    5MOL     C3 7709   3.808   6.040   3.290 -0.2383  0.8237  0.5671
    5MOL     C4 7710   3.831   6.099   3.163 -0.2158  0.1622 -0.4682
    5MOL     C5 7711   3.826   6.239   3.159  0.0753  0.3640 -0.1123
    5MOL     C6 7712   3.797   6.315   3.275  0.9115 -0.6062 -0.2733
    5MOL     C7 7713   3.776   6.253   3.399  0.2615  0.2232 -0.2592
    5MOL     N3 7714   3.864   6.304   3.038  0.6489  0.4026  0.3756
    5MOL     C8 7715   3.973   6.392   3.034 -0.1068  0.1401 -0.3985
    5MOL     C9 7716   3.991   6.416   2.886  0.3312 -0.2031  0.6524
    5MOL    C10 7717   3.890   6.352   2.813  0.0457 -0.3448  0.3742
    5MOL    C11 7718   3.812   6.272   2.912 -0.0691 -0.0970 -0.7937
    5MOL     O1 7719   3.719   6.203   2.894 -0.5453 -0.5508  0.2356
    5MOL    C12 7720   4.095   6.484   2.821 -0.7781 -0.1275 -0.5180
    5MOL    C13 7721   4.103   6.489   2.683 -0.4135 -0.1828 -0.2042
    5MOL    C14 7722   3.999   6.427   2.608 -0.4910 -0.1395 -0.4866
    5MOL    C15 7723   3.902   6.348   2.675  0.1782 -0.0819  0.2930
    5MOL    C16 7724   4.264   6.437   2.516  0.7034 -0.1557 -0.5165
    5MOL    C17 7725   4.284   6.448   2.373 -0.9344 -0.0537 -0.1779
    5MOL    C18 7726   4.339   6.338   2.301 -0.6675 -0.2343 -0.1422
    5MOL    C19 7727   4.307   6.319   2.579  0.0035 -0.1034 -0.5328
    5MOL    C20 7728   4.369   6.222   2.366  0.0908 -0.3894 -0.5837
    5MOL    C21 7729   4.358   6.214   2.507  0.2979  0.2376  0.0828
    5MOL    C22 7730   4.218   6.549   2.604 -0.3612 -0.7001 -0.5877
    5MOL    C23 7731   4.148   6.670   2.534 -0.2697 -0.0805  0.0104
    5MOL     F1 7732   4.078   6.749   2.622 -0.0198 -0.2208 -0.0841
    5MOL     F2 7733   4.064   6.635   2.435  0.1286  0.0752 -0.1920
    5MOL     F3 7734   4.245   6.749   2.476  0.0205 -0.0299 -0.0138
    5MOL    C24 7735   4.332   6.601   2.695 -0.8112  0.2986 -0.0643
    5MOL     F4 7736   4.436   6.629   2.615 -0.7299  0.1838 -0.3647
    5MOL     F5 7737   4.384   6.513   2.784  0.0313 -0.4917 -0.4621
    5MOL     F6 7738   4.305   6.711   2.766  0.5059  0.2519 -0.3697
    5MOL     O2 7739   4.045   6.432   3.125 -0.2226 -0.1016  0.0830
    5MOL    C25 7740   4.357   6.313   2.155  0.2282 -0.8320 -0.9626
    5MOL     N4 7741   4.411   6.186   2.143  0.0573  0.0194  0.0841
    5MOL    C26 7742   4.416   6.124   2.267  0.1100  0.4427  0.8230
    5MOL     O3 7743   4.452   6.012   2.294 -0.2160  0.3947  0.3605
    5MOL    C27 7744   3.497   6.040   3.384 -0.3095  0.5037 -0.0514
    5MOL    C28 7745   3.501   5.946   3.285  0.2065  0.5163 -0.2241
    5MOL    C29 7746   3.414   6.150   3.381 -0.1276 -0.2664  0.7511
    5MOL    C30 7747   3.447   5.979   3.160  0.1863  0.0008  0.1113
    5MOL    C31 7748   3.339   6.171   3.257 -0.6368 -0.5342 -0.3464
    5MOL    C32 7749   3.368   6.093   3.144  0.0125  0.2242 -0.1815
    5MOL    C33 7750   3.318   6.136   3.019 -0.1667 -0.2052 -0.0543
    5MOL     N5 7751   3.251   6.062   2.921  0.4786  0.0840 -0.1547
    5MOL     N6 7752   3.345   6.260   2.967  0.2420 -0.4366 -0.0215
    5MOL    C34 7753   3.225   6.156   2.815 -0.2312  0.1463  0.5102
    5MOL    C35 7754   3.295   6.270   2.840 -0.1452 -0.0208 -0.0929
    5MOL    C36 7755   3.466   6.338   3.015 -0.1472 -0.4021  0.5713
    5MOL     H1 7756   3.546   6.324   2.936  1.6324 -3.5785 -0.4079
    5MOL     H2 7757   3.506   6.305   3.110 -1.4768  2.7932  1.5848
    5MOL     H3 7758   3.440   6.442   3.021 -2.7147 -0.5618  0.8219
    5MOL    C37 7759   3.220   5.923   2.929  0.9545  0.1743  0.2120
    5MOL    C38 7760   3.134   5.877   3.032 -0.2964  0.8867  0.0324
    5MOL    C39 7761   3.118   5.735   3.045  0.4603 -0.7819 -0.3729
    5MOL    C40 7762   3.175   5.650   2.957  0.0434  0.2263  0.7084
    5MOL    C41 7763   3.261   5.704   2.857  0.2635  0.9813  0.1656
    5MOL    C42 7764   3.292   5.836   2.844 -0.2848 -0.2924 -0.1419
    5MOL    C43 7765   3.311   6.387   2.741  0.5957 -1.4797  0.1950
    5MOL     F7 7766   3.441   6.431   2.746  0.3037 -0.9893 -0.1720
    5MOL     F8 7767   3.216   6.482   2.768  0.1268 -0.5327  0.2222
    5MOL     F9 7768   3.298   6.347   2.609  0.2968  0.4050 -0.1451
    5MOL    C44 7769   3.766   5.968   3.610 -0.4252 -0.0289  0.0213
    5MOL    C45 7770   3.674   5.880   3.647  0.4034  0.3874  0.3524
    5MOL    C46 7771   3.692   5.758   3.738 -0.5146  0.1341 -0.6068
    5MOL    F10 7772   3.579   5.718   3.803 -0.4690 -0.1787  0.4342
    5MOL    F11 7773   3.736   5.658   3.662  0.0242  0.0917 -0.4743
    5MOL     H4 7774   3.872   5.957   3.641  0.8189 -0.3415 -3.1393
    5MOL     H5 7775   3.786   5.930   3.301 -1.3545 -2.0198 -0.1079
    5MOL     H6 7776   3.860   6.029   3.080 -5.0231  0.3047 -0.9056
    5MOL     H7 7777   3.748   6.318   3.484  1.4169 -0.5952  2.2309
    5MOL     H8 7778   3.777   6.424   3.261  2.9078 -0.4514 -0.1803
    5MOL     H9 7779   4.179   6.505   2.888  2.7744 -0.2714 -0.7041
    5MOL    H10 7780   3.994   6.417   2.502  2.2393  2.2033 -2.0604
    5MOL    H11 7781   3.827   6.289   2.621 -1.5697 -0.4133  1.3958
    5MOL    H12 7782   4.302   6.321   2.690 -2.3467 -0.6366 -0.1901
    5MOL    H13 7783   4.254   6.541   2.329 -1.7603  2.0009 -2.0759
    5MOL    H14 7784   4.389   6.129   2.563 -1.6054  0.3207  1.1528
    5MOL     O4 7785   4.348   6.390   2.067 -0.8638 -0.0495 -0.0360
    5MOL    H15 7786   3.555   5.857   3.294 -1.3053  2.3055 -1.2468
    5MOL    H16 7787   3.460   5.912   3.075 -1.7898  0.9786  0.1444
    5MOL    H17 7788   3.395   6.215   3.466  2.1081 -1.3661  0.3074
    5MOL    H18 7789   3.055   5.696   3.121 -0.1849 -3.9382  1.1256
    5MOL    H19 7790   3.078   5.937   3.103  0.9787 -3.4344 -3.5858
    5MOL    H20 7791   3.319   5.634   2.782  2.5391  1.0799 -1.1642
    5MOL    H21 7792   3.360   5.876   2.769  0.2288  0.2392  0.8539
    5MOL    H22 7793   3.171   6.124   2.723 -1.5006 -2.0680 -1.5388
    5MOL    H23 7794   3.279   6.260   3.257 -2.4360  0.6942 -2.4611
    5MOL    F12 7795   3.774   5.781   3.839  0.3073  0.1471 -0.2584
    5MOL    C47 7796   3.443   5.818   3.561 -0.1237  0.0313 -0.4442
    5MOL    H24 7797   3.372   5.807   3.641  1.6568  1.8044  0.7824
    5MOL    H25 7798   3.478   5.710   3.538 -0.7475 -1.8658  0.3193
    5MOL    H26 7799   3.383   5.847   3.480 -0.5029 -3.0619 -2.1913
    5MOL     N1 7800   5.133   5.593   2.223 -0.0609 -0.0418 -0.0034
    5MOL     N2 7801   4.968   5.633   2.374  0.1040  0.1460 -0.3569
    5MOL     C1 7802   4.994   5.625   2.237 -0.3913 -0.0087  0.8088
    5MOL     C2 7803   4.847   5.621   2.429  0.3052 -0.1857 -0.1660
    5MOL     C3 7804   4.780   5.734   2.474 -0.0666 -0.6017 -0.3309
    5MOL     C4 7805   4.672   5.716   2.565 -0.2880  0.2444 -0.3339
    5MOL     C5 7806   4.623   5.583   2.592  0.0180 -0.4857  0.5026
    5MOL     C6 7807   4.685   5.472   2.534  0.3582 -0.5113 -0.3913
    5MOL     C7 7808   4.799   5.491   2.465 -0.1244  0.5646 -1.1852
    5MOL     N3 7809   4.523   5.566   2.688  0.7480  0.5833 -0.0399
    5MOL     C8 7810   4.526   5.467   2.788 -0.2457  0.5626  0.0781
    5MOL     C9 7811   4.398   5.476   2.858  0.0709  0.3805 -0.6506
    5MOL    C10 7812   4.316   5.574   2.800 -0.3247 -0.3509 -0.5428
    5MOL    C11 7813   4.401   5.634   2.692  0.3757 -0.2013 -0.3953
    5MOL     O1 7814   4.356   5.725   2.619 -0.5071  0.4428 -0.1614
    5MOL    C12 7815   4.357   5.402   2.967 -0.1508  0.4688  0.3243
    5MOL    C13 7816   4.229   5.426   3.023 -0.3832  0.9731 -0.5218
    5MOL    C14 7817   4.145   5.528   2.960  0.0187  0.0808  0.0152
    5MOL    C15 7818   4.186   5.597   2.841  0.3700  0.2914 -0.2173
    5MOL    C16 7819   4.057   5.417   3.198  0.1860 -0.4848  0.1646
    5MOL    C17 7820   3.927   5.386   3.147  0.2302  0.8533 -0.2058
    5MOL    C18 7821   3.811   5.448   3.194 -0.1456  0.0744 -0.3517
    5MOL    C19 7822   4.063   5.512   3.300 -0.3217  0.1186 -0.7827
    5MOL    C20 7823   3.824   5.542   3.293 -0.1493 -0.1668 -0.0595
    5MOL    C21 7824   3.947   5.575   3.350  0.2481  0.5984 -0.2791
    5MOL    C22 7825   4.193   5.351   3.155  0.0947  0.0217 -0.7519
    5MOL    C23 7826   4.171   5.201   3.122 -0.4780 -0.3332 -0.0852
    5MOL     F1 7827   4.103   5.142   3.220 -0.5595 -0.0654 -0.2118
    5MOL     F2 7828   4.290   5.127   3.106  0.0326  0.2539 -0.1388
    5MOL     F3 7829   4.099   5.192   3.005  0.1723  0.0252  0.4168
    5MOL    C24 7830   4.307   5.363   3.267  0.2701 -0.1849  0.4155
    5MOL     F4 7831   4.411   5.277   3.249 -0.2903 -0.1549  0.2306
    5MOL     F5 7832   4.254   5.327   3.385 -0.3585  0.3040  0.3618
    5MOL     F6 7833   4.370   5.482   3.286  0.0019  0.3569 -0.3158
    5MOL     O2 7834   4.608   5.378   2.795 -0.6282 -0.4151  0.5378
    5MOL    C25 7835   3.668   5.425   3.171  0.6925 -0.6229 -0.3047
    5MOL     N4 7836   3.600   5.508   3.259  0.3416  0.2118 -0.2881
    5MOL    C26 7837   3.690   5.585   3.329  0.2637  0.0393  0.5465
    5MOL     O3 7838   3.659   5.689   3.383  0.2764  0.1821  0.4547
    5MOL    C27 7839   4.916   5.673   2.133 -0.0158  0.7105  0.0054
    5MOL    C28 7840   4.870   5.802   2.144  0.7245 -0.2771 -0.7705
    5MOL    C29 7841   4.889   5.586   2.029 -0.6067 -0.0756  0.6789
    5MOL    C30 7842   4.825   5.864   2.031  0.1740  0.2178 -0.2727
    5MOL    C31 7843   4.846   5.654   1.913 -1.4757  0.4209 -0.2163
    5MOL    C32 7844   4.817   5.789   1.908 -0.3272 -0.7636  0.8013
    5MOL    C33 7845   4.793   5.846   1.781  0.1293 -0.7579 -0.6947
    5MOL     N5 7846   4.695   5.938   1.732  0.1248  0.2031  0.6251
    5MOL     N6 7847   4.878   5.805   1.669 -0.0514  0.0211  0.1007
    5MOL    C34 7848   4.719   5.944   1.598 -0.0942 -0.1275  0.3948
    5MOL    C35 7849   4.822   5.872   1.561  0.3564  0.2148  0.2623
    5MOL    C36 7850   5.025   5.820   1.682 -0.5184 -0.1057 -0.0768
    5MOL     H1 7851   5.066   5.749   1.603  0.2250 -0.5362 -4.5107
    5MOL     H2 7852   5.053   5.797   1.784  1.1672 -1.4882 -0.9394
    5MOL     H3 7853   5.049   5.930   1.671 -1.3301  1.8143 -1.4158
    5MOL    C37 7854   4.606   6.013   1.809 -0.3555  0.1927 -0.5540
    5MOL    C38 7855   4.494   5.949   1.860  0.0290  0.1560  0.1793
    5MOL    C39 7856   4.416   6.019   1.960  0.3453  0.0057  0.0291
    5MOL    C40 7857   4.467   6.135   2.021 -0.6245  0.5571 -0.4094
    5MOL    C41 7858   4.580   6.198   1.965 -0.1020  0.2754 -0.4210
    5MOL    C42 7859   4.651   6.139   1.861  0.1300 -0.2187  0.2491
    5MOL    C43 7860   4.856   5.853   1.412 -0.2204  0.0490  0.1849
    5MOL     F7 7861   4.943   5.744   1.406  0.5619  0.2229 -0.5200
    5MOL     F8 7862   4.923   5.965   1.369  0.3438  0.0090  0.2825
    5MOL     F9 7863   4.755   5.833   1.320  0.3703  0.2431 -0.2487
    5MOL    C44 7864   5.086   5.609   2.442 -0.0962  0.4431 -0.4102
    5MOL    C45 7865   5.184   5.589   2.359  0.1214 -0.2742  0.2271
    5MOL    C46 7866   5.316   5.538   2.414 -0.7185  0.0473 -0.0616
    5MOL    F10 7867   5.306   5.413   2.458 -0.2394 -0.2444  0.1843
    5MOL    F11 7868   5.421   5.564   2.327 -0.7137  0.1380  0.1993
    5MOL     H4 7869   5.086   5.598   2.546  0.2639  0.6095 -2.5602
    5MOL     H5 7870   4.813   5.836   2.439 -0.3673  1.9709  2.9734
    5MOL     H6 7871   4.627   5.805   2.614  1.7302 -0.0242  0.1531
    5MOL     H7 7872   4.863   5.404   2.447 -1.4277  2.0815  1.3201
    5MOL     H8 7873   4.645   5.370   2.553 -1.1680  0.5828 -0.2593
    5MOL     H9 7874   4.428   5.326   2.994 -1.6101  1.8148 -1.2244
    5MOL    H10 7875   4.051   5.556   3.003 -0.0279  0.6681 -0.9639
    5MOL    H11 7876   4.115   5.670   2.805 -2.2486  0.3885 -0.9161
    5MOL    H12 7877   4.155   5.536   3.351  3.2275  0.8858 -1.9662
    5MOL    H13 7878   3.920   5.305   3.077 -0.0673  1.9614  1.4781
    5MOL    H14 7879   3.959   5.644   3.437  0.0079 -0.3030  2.6043
    5MOL     O4 7880   3.619   5.338   3.097 -0.1786  0.8709  0.0804
    5MOL    H15 7881   4.883   5.859   2.241 -2.3966  2.8062  1.1019
    5MOL    H16 7882   4.803   5.973   2.036 -0.0850 -1.6461  1.2181
    5MOL    H17 7883   4.920   5.486   2.025  0.5891  2.0544 -0.2322
    5MOL    H18 7884   4.320   5.979   1.994 -1.5275  1.2718  1.6237
    5MOL    H19 7885   4.468   5.848   1.835 -2.5167  0.0123  1.0909
    5MOL    H20 7886   4.627   6.290   2.007  0.9134  1.1113  0.0072
    5MOL    H21 7887   4.735   6.187   1.820  0.2618  1.9288 -2.1682
    5MOL    H22 7888   4.651   5.992   1.536  0.1772  1.1667  1.2492
    5MOL    H23 7889   4.828   5.590   1.825  2.2438  0.6278  1.6414
    5MOL    F12 7890   5.343   5.604   2.524  0.1134 -0.1900  0.0350
    5MOL    C47 7891   5.208   5.660   2.115  0.0930  0.9183  0.0730
    5MOL    H24 7892   5.275   5.587   2.070 -0.8419 -1.9846 -1.1198
    5MOL    H25 7893   5.264   5.747   2.157  1.1107 -1.1367  0.3725
    5MOL    H26 7894   5.133   5.689   2.044  1.1834  2.3597  2.4131
    5MOL     N1 7895   3.552   5.405   4.101 -0.2396  0.1420  0.2290
    5MOL     N2 7896   3.685   5.343   3.921  0.0083  0.4332 -0.1603
    5MOL     C1 7897   3.550   5.369   3.962  0.2274  0.1426  0.0626
    5MOL     C2 7898   3.721   5.282   3.806  0.6926  0.0202 -0.4019
    5MOL     C3 7899   3.769   5.152   3.824 -0.2308  0.2578  0.0578
    5MOL     C4 7900   3.783   5.074   3.703  0.0421 -0.1682  0.1885
    5MOL     C5 7901   3.750   5.124   3.574 -0.4135  1.1736  0.3781
    5MOL     C6 7902   3.703   5.256   3.558 -0.0195 -0.6396  0.5698
    5MOL     C7 7903   3.688   5.330   3.676  0.2157  0.1288 -0.5081
    5MOL     N3 7904   3.743   5.038   3.462  0.0779 -0.3201 -0.4020
    5MOL     C8 7905   3.790   5.078   3.340 -0.6966  0.2923 -0.1213
    5MOL     C9 7906   3.760   4.965   3.248 -0.3983  0.1631  0.2676
    5MOL    C10 7907   3.690   4.875   3.320 -0.0533  1.0529 -0.0970
    5MOL    C11 7908   3.673   4.917   3.459 -0.4181 -0.3120  0.3522
    5MOL     O1 7909   3.610   4.875   3.556 -0.0651  0.2507  0.7721
    5MOL    C12 7910   3.791   4.944   3.114 -0.6102  0.4639  0.8473
    5MOL    C13 7911   3.756   4.822   3.047 -0.5040  0.1590 -0.3481
    5MOL    C14 7912   3.680   4.733   3.122  0.4502  0.4112 -0.1295
    5MOL    C15 7913   3.645   4.756   3.258 -0.3464 -0.0632 -0.3071
    5MOL    C16 7914   3.787   4.912   2.806  0.0499  0.5644 -0.4976
    5MOL    C17 7915   3.681   5.001   2.831 -0.4272 -1.5752 -0.1269
    5MOL    C18 7916   3.652   5.098   2.731  0.6657 -0.1954 -0.5508
    5MOL    C19 7917   3.860   4.924   2.683  0.3374 -0.0353 -0.0845
    5MOL    C20 7918   3.716   5.093   2.612  0.2276 -0.7602 -0.1356
    5MOL    C21 7919   3.822   5.008   2.581 -0.1147  1.0827 -0.1249
    5MOL    C22 7920   3.813   4.796   2.905  0.0498  0.3270 -0.5780
    5MOL    C23 7921   3.968   4.767   2.919  0.2292  0.2159 -0.3555
    5MOL     F1 7922   3.983   4.702   3.032 -0.7280  0.7404  0.0928
    5MOL     F2 7923   4.045   4.883   2.921  0.7602  0.2447  0.2560
    5MOL     F3 7924   4.012   4.694   2.819 -0.5945  0.3039  0.5215
    5MOL    C24 7925   3.732   4.672   2.842  0.2479 -0.1505  0.2698
    5MOL     F4 7926   3.769   4.653   2.713 -0.0731 -0.4970  0.7223
    5MOL     F5 7927   3.603   4.697   2.838  0.2563 -0.6096  0.0879
    5MOL     F6 7928   3.759   4.560   2.902  0.0768 -0.3607  0.0556
    5MOL     O2 7929   3.857   5.171   3.315  0.2609 -0.6981 -0.0709
    5MOL    C25 7930   3.556   5.219   2.725 -0.1685  0.6695  0.3601
    5MOL     N4 7931   3.559   5.261   2.596 -0.3740  0.0439  0.5089
    5MOL    C26 7932   3.651   5.194   2.525  0.5515  0.1589 -0.5523
    5MOL     O3 7933   3.689   5.217   2.412 -0.2462 -0.6525 -0.7771
    5MOL    C27 7934   3.436   5.376   3.887  0.4183  0.2802  0.1739
    5MOL    C28 7935   3.389   5.497   3.846  0.1951  0.3441 -0.6701
    5MOL    C29 7936   3.379   5.256   3.836 -0.5940  0.0330 -0.2579
    5MOL    C30 7937   3.291   5.511   3.755 -0.4870  0.3705 -0.1066
    5MOL    C31 7938   3.263   5.268   3.754  0.4343  0.7744  0.0734
    5MOL    C32 7939   3.221   5.394   3.712  0.1676  0.4281  0.0403
    5MOL    C33 7940   3.107   5.406   3.636  0.4973  0.2851 -0.0520
    5MOL     N5 7941   3.099   5.434   3.497 -0.0758 -0.3693 -0.0873
    5MOL     N6 7942   2.980   5.364   3.679 -0.0989  0.8713  0.5577
    5MOL    C34 7943   2.960   5.427   3.462  0.1368  1.1507 -0.3136
    5MOL    C35 7944   2.894   5.376   3.566 -0.0118 -0.3792 -0.0246
    5MOL    C36 7945   2.952   5.305   3.802 -0.4278 -0.2665 -0.5011
    5MOL     H1 7946   2.866   5.361   3.854 -0.4781  1.2310 -1.3289
    5MOL     H2 7947   3.050   5.290   3.846  0.0118  0.7430 -0.5471
    5MOL     H3 7948   2.914   5.203   3.767 -0.4970 -1.4736 -0.4547
    5MOL    C37 7949   3.212   5.458   3.419 -0.5090 -0.1067 -0.1052
    5MOL    C38 7950   3.254   5.584   3.383 -0.1659 -0.6970 -0.1549
    5MOL    C39 7951   3.380   5.603   3.317  0.3494  0.3160 -0.2099
    5MOL    C40 7952   3.466   5.491   3.304  0.1344 -0.9114  0.3693
    5MOL    C41 7953   3.420   5.362   3.340 -0.0657  0.7224  1.0001
    5MOL    C42 7954   3.293   5.341   3.391  0.0879 -0.1052  0.2111
    5MOL    C43 7955   2.753   5.324   3.560 -0.5062  0.0290 -0.0009
    5MOL     F7 7956   2.678   5.390   3.652  0.0776  0.3745  0.0987
    5MOL     F8 7957   2.750   5.195   3.572 -0.2720  0.5719 -0.3390
    5MOL     F9 7958   2.704   5.352   3.437  0.6932 -0.6785 -0.1681
    5MOL    C44 7959   3.764   5.349   4.039 -0.3035 -0.1070 -0.1484
    5MOL    C45 7960   3.691   5.388   4.139  0.2953  0.2370 -0.2699
    5MOL    C46 7961   3.738   5.420   4.277  0.2696 -0.3378 -0.1040
    5MOL    F10 7962   3.638   5.426   4.368  0.3242 -0.4695  0.3177
    5MOL    F11 7963   3.829   5.329   4.312 -0.2028 -0.1570 -0.1723
    5MOL     H4 7964   3.873   5.330   4.027 -0.3640 -0.1078 -1.5237
    5MOL     H5 7965   3.784   5.108   3.929  0.3305 -0.6602  4.1613
    5MOL     H6 7966   3.817   4.973   3.721 -3.3129  0.2619 -2.4020
    5MOL     H7 7967   3.641   5.427   3.668 -0.9352 -2.3053  0.3026
    5MOL     H8 7968   3.690   5.296   3.462 -1.6806 -1.6109  2.8156
    5MOL     H9 7969   3.852   5.022   3.067  2.8631  0.1828 -1.7448
    5MOL    H10 7970   3.653   4.636   3.078 -1.6906  0.0501 -1.1980
    5MOL    H11 7971   3.589   4.680   3.312 -1.5915 -1.2515  0.4709
    5MOL    H12 7972   3.941   4.857   2.666 -1.0837 -1.0151  0.6007
    5MOL    H13 7973   3.625   4.999   2.923  0.0160 -2.1386  0.6915
    5MOL    H14 7974   3.868   4.998   2.483  0.1895 -0.8508  0.7728
    5MOL     O4 7975   3.481   5.260   2.818 -0.2285  0.2415  0.1371
    5MOL    H15 7976   3.437   5.583   3.893 -2.2270  0.6204  1.7861
    5MOL    H16 7977   3.251   5.613   3.733 -0.6563  1.2366  1.5225
    5MOL    H17 7978   3.406   5.157   3.867 -0.3321  0.4275 -1.8740
    5MOL    H18 7979   3.403   5.703   3.286 -0.0227 -2.6504 -3.4280
    5MOL    H19 7980   3.193   5.671   3.412 -0.0410 -1.6189  1.4629
    5MOL    H20 7981   3.485   5.286   3.323 -1.4161  2.4160  4.1756
    5MOL    H21 7982   3.269   5.237   3.407 -0.7213 -0.2498 -2.4589
    5MOL    H22 7983   2.918   5.439   3.357 -0.7880  0.8532 -0.7744
    5MOL    H23 7984   3.210   5.173   3.735  2.7119  1.5867 -0.7686
    5MOL    F12 7985   3.801   5.536   4.284  0.4856 -0.2415 -0.2543
    5MOL    C47 7986   3.477   5.525   4.147 -0.6772 -0.2228 -0.4443
    5MOL    H24 7987   3.517   5.624   4.129  0.0576  0.1421 -2.0036
    5MOL    H25 7988   3.489   5.520   4.256  0.8246 -1.2029  0.7642
    5MOL    H26 7989   3.374   5.511   4.108 -3.2704 -0.4837  0.8720
    5MOL     N1 7990   3.987   5.371   2.519  0.1135  0.3087 -0.2365
    5MOL     N2 7991   4.001   5.264   2.315 -0.9990 -0.1692  0.0646
    5MOL     C1 7992   3.950   5.385   2.379  0.4196  0.2324 -0.8803
    5MOL     C2 7993   4.014   5.240   2.175  0.0671 -0.5117  0.8324
    5MOL     C3 7994   3.978   5.335   2.081 -0.0199 -0.1706  0.1067
    5MOL     C4 7995   3.969   5.297   1.947  0.0466  0.2288  0.9569
    5MOL     C5 7996   3.979   5.166   1.905 -0.5678  0.7044  0.1287
    5MOL     C6 7997   4.009   5.068   2.000  0.2723 -0.2265 -0.0169
    5MOL     C7 7998   4.037   5.111   2.134  0.7689  0.1349 -0.1107
    5MOL     N3 7999   3.955   5.126   1.771  0.2878  0.3910 -0.0378
    5MOL     C8 8000   4.051   5.070   1.695 -0.3078 -0.3857  0.2629
    5MOL     C9 8001   3.984   5.007   1.580 -0.4270  0.1602  0.5236
    5MOL    C10 8002   3.850   5.050   1.586  0.6245 -0.3214  0.0550
    5MOL    C11 8003   3.830   5.120   1.715 -0.3532 -0.1335 -0.4266
    5MOL     O1 8004   3.728   5.164   1.760  0.2484  0.0633 -0.3106
    5MOL    C12 8005   4.025   4.903   1.494  0.0144 -0.3046  0.0299
    5MOL    C13 8006   3.929   4.849   1.403  0.3289 -0.0691 -0.5720
    5MOL    C14 8007   3.796   4.904   1.401 -0.5764  0.0945  0.5082
    5MOL    C15 8008   3.758   5.003   1.491  0.3155 -0.1033 -0.0930
    5MOL    C16 8009   3.834   4.618   1.371 -0.8255 -0.1532  0.4653
    5MOL    C17 8010   3.768   4.540   1.276  0.3246  0.3687  0.8938
    5MOL    C18 8011   3.659   4.464   1.316  1.0025 -0.0252  0.2848
    5MOL    C19 8012   3.796   4.603   1.508 -0.4160 -0.4255  0.5992
    5MOL    C20 8013   3.612   4.458   1.447 -0.3557  0.1932  0.1287
    5MOL    C21 8014   3.687   4.526   1.548  0.4589 -0.4694  0.3721
    5MOL    C22 8015   3.951   4.714   1.328 -0.3369 -0.4878  0.0728
    5MOL    C23 8016   3.937   4.742   1.171 -0.4466 -0.2313  0.5230
    5MOL     F1 8017   3.982   4.641   1.086 -0.2482 -0.0021  0.2802
    5MOL     F2 8018   4.015   4.839   1.140  0.7288  0.7143 -0.3179
    5MOL     F3 8019   3.814   4.776   1.128 -0.5050  0.0253 -0.0574
    5MOL    C24 8020   4.079   4.636   1.359  0.1725 -0.7404  0.3619
    5MOL     F4 8021   4.192   4.699   1.319  0.3092 -0.2237  0.4247
    5MOL     F5 8022   4.080   4.508   1.300  0.2010 -0.0968 -0.4574
    5MOL     F6 8023   4.087   4.609   1.496 -0.1918  0.4564  0.1853
    5MOL     O2 8024   4.169   5.058   1.719 -0.3167  0.1114  0.0450
    5MOL    C25 8025   3.589   4.353   1.237  0.0019  0.0756 -0.1053
    5MOL     N4 8026   3.508   4.292   1.331 -0.0814 -0.1276 -0.3224
    5MOL    C26 8027   3.520   4.341   1.462  0.4858 -0.5305  0.2969
    5MOL     O3 8028   3.459   4.290   1.553  0.3997 -0.2035 -0.2450
    5MOL    C27 8029   3.848   5.468   2.329  0.4882 -0.0842  0.0157
    5MOL    C28 8030   3.750   5.419   2.235  0.1647 -0.3081 -0.3783
    5MOL    C29 8031   3.864   5.610   2.346 -0.3962 -0.1456  0.2992
    5MOL    C30 8032   3.652   5.501   2.187 -1.1519 -0.2179  0.9355
    5MOL    C31 8033   3.768   5.691   2.283  0.1917  0.0562 -0.2592
    5MOL    C32 8034   3.657   5.639   2.215  0.1716 -0.3087  0.5693
    5MOL    C33 8035   3.546   5.717   2.191  0.1329  0.7087  0.1994
    5MOL     N5 8036   3.433   5.684   2.268  0.3937 -0.4041  0.2624
    5MOL     N6 8037   3.508   5.750   2.062  0.0617  0.5886  0.1100
    5MOL    C34 8038   3.325   5.720   2.185 -0.1088  0.0372  0.2758
    5MOL    C35 8039   3.367   5.751   2.062  0.0157 -0.4795  0.0235
    5MOL    C36 8040   3.568   5.865   1.996 -0.2496  0.7059 -0.2692
    5MOL     H1 8041   3.497   5.916   1.927  2.1571  0.5957  1.8642
    5MOL     H2 8042   3.658   5.825   1.940  1.5216 -0.0345  0.3696
    5MOL     H3 8043   3.605   5.935   2.066 -0.6311  0.2724 -1.8474
    5MOL    C37 8044   3.434   5.598   2.378  0.2058  0.5643 -0.5959
    5MOL    C38 8045   3.386   5.467   2.347 -0.2497 -0.4748  0.6511
    5MOL    C39 8046   3.414   5.354   2.427 -0.2261 -0.0608  0.6013
    5MOL    C40 8047   3.498   5.376   2.539  0.6837  0.4371  0.5126
    5MOL    C41 8048   3.540   5.501   2.577  0.4193  0.5509 -0.7403
    5MOL    C42 8049   3.514   5.614   2.494  0.0060 -0.5463 -1.3619
    5MOL    C43 8050   3.293   5.740   1.934  0.4716  0.1189  0.3435
    5MOL     F7 8051   3.338   5.810   1.821 -0.2970  0.1225  0.2152
    5MOL     F8 8052   3.166   5.781   1.970 -0.3050  0.2287  0.1152
    5MOL     F9 8053   3.277   5.613   1.893 -0.1511  0.5547  0.1357
    5MOL    C44 8054   4.055   5.184   2.422 -0.0728  0.1758  0.1682
    5MOL    C45 8055   4.054   5.247   2.539 -0.0379  0.0612 -0.3936
    5MOL    C46 8056   4.092   5.183   2.674  0.0341 -0.4283  0.1407
    5MOL    F10 8057   3.980   5.186   2.761  0.2309 -0.6643 -0.4021
    5MOL    F11 8058   4.132   5.057   2.667  0.1907  0.6356  0.1468
    5MOL     H4 8059   4.089   5.084   2.408 -4.1700  0.2470 -2.2889
    5MOL     H5 8060   3.964   5.436   2.114  0.9838 -2.1291  2.3788
    5MOL     H6 8061   3.934   5.374   1.877  3.2392  1.1033 -1.3834
    5MOL     H7 8062   4.061   5.034   2.206 -0.6933 -0.0928  0.6776
    5MOL     H8 8063   4.013   4.967   1.971  1.1830 -1.5229  2.1408
    5MOL     H9 8064   4.127   4.868   1.508  0.3970 -3.4965  0.4896
    5MOL    H10 8065   3.718   4.858   1.346 -1.8655  1.0461 -1.6436
    5MOL    H11 8066   3.663   5.038   1.489 -0.3794 -0.4459  1.2612
    5MOL    H12 8067   3.856   4.647   1.586  0.2911  1.4069  0.8376
    5MOL    H13 8068   3.793   4.541   1.176 -2.0650  0.3527  3.3338
    5MOL    H14 8069   3.662   4.519   1.655 -0.0148 -2.2472 -0.0142
    5MOL     O4 8070   3.607   4.310   1.125  0.1820 -0.0044 -0.2617
    5MOL    H15 8071   3.744   5.317   2.208 -0.3652  2.4484 -0.8401
    5MOL    H16 8072   3.577   5.456   2.122 -0.4584  0.6771  1.6635
    5MOL    H17 8073   3.948   5.660   2.392  1.5264  0.6706  0.3972
    5MOL    H18 8074   3.380   5.262   2.381 -0.8303 -0.6654 -3.4018
    5MOL    H19 8075   3.334   5.447   2.257 -0.0472 -2.0657 -1.9803
    5MOL    H20 8076   3.601   5.513   2.673 -0.1305  2.4537  2.0674
    5MOL    H21 8077   3.554   5.709   2.523 -2.9398  0.8185 -0.1336
    5MOL    H22 8078   3.227   5.681   2.204  1.4545 -2.8703  0.8838
    5MOL    H23 8079   3.769   5.796   2.312 -2.4029  0.6528  0.4681
    5MOL    F12 8080   4.197   5.257   2.736  0.3185 -0.0456 -0.6003
    5MOL    C47 8081   3.942   5.448   2.629 -0.1265 -0.1257 -0.3967
    5MOL    H24 8082   4.030   5.501   2.678  2.4955  1.0303 -0.1537
    5MOL    H25 8083   3.895   5.375   2.694 -1.6693  4.5394  2.6093
    5MOL    H26 8084   3.864   5.525   2.585 -2.1662  1.7632 -0.3631
    5MOL     N1 8085   3.451   4.321   1.867 -0.7893  0.2595 -0.7277
    5MOL     N2 8086   3.280   4.238   2.002 -0.2475  0.7367 -0.3166
    5MOL     C1 8087   3.342   4.232   1.872  0.4335  0.0181  0.2049
    5MOL     C2 8088   3.246   4.128   2.086 -0.4064  0.1297 -0.1519
    5MOL     C3 8089   3.184   4.016   2.018  0.0649  0.3568  0.1839
    5MOL     C4 8090   3.171   3.896   2.095  0.0415 -0.2229 -0.1726
    5MOL     C5 8091   3.228   3.888   2.224 -0.5901 -0.0950  0.0942
    5MOL     C6 8092   3.279   4.008   2.283  0.0549 -0.2967  0.1396
    5MOL     C7 8093   3.290   4.129   2.220  0.0563  0.0162 -1.0590
    5MOL     N3 8094   3.247   3.767   2.287 -0.0249  0.4410  0.2631
    5MOL     C8 8095   3.376   3.708   2.301  0.0510  0.1448  0.0729
    5MOL     C9 8096   3.345   3.565   2.333  0.1055  0.5438 -0.3701
    5MOL    C10 8097   3.205   3.558   2.346  0.5203 -0.0330 -0.3394
    5MOL    C11 8098   3.140   3.690   2.326 -0.0600 -0.0877  0.0478
    5MOL     O1 8099   3.023   3.725   2.335 -0.7839 -0.7081  0.3884
    5MOL    C12 8100   3.426   3.452   2.351  0.2024 -0.1421  0.0765
    5MOL    C13 8101   3.365   3.325   2.379  0.2017 -0.1136 -0.3704
    5MOL    C14 8102   3.220   3.314   2.396  0.0942  0.1948 -0.5539
    5MOL    C15 8103   3.144   3.430   2.372 -0.9333  0.0763  0.4525
    5MOL    C16 8104   3.582   3.221   2.301  0.4460  0.2199  0.2830
    5MOL    C17 8105   3.545   3.265   2.173  0.7046 -0.6160  0.0920
    5MOL    C18 8106   3.644   3.282   2.076  0.3828  0.5714 -0.2642
    5MOL    C19 8107   3.715   3.190   2.325 -0.8101 -0.1807 -0.1067
    5MOL    C20 8108   3.773   3.251   2.101 -0.3339  0.1148 -0.1680
    5MOL    C21 8109   3.814   3.211   2.228 -0.3712 -0.2616  0.3043
    5MOL    C22 8110   3.457   3.206   2.397 -0.2211  0.1218 -0.6299
    5MOL    C23 8111   3.504   3.218   2.545 -0.2055 -0.1431  0.0088
    5MOL     F1 8112   3.574   3.331   2.556 -0.5066 -0.1134  0.1858
    5MOL     F2 8113   3.577   3.119   2.590  0.6529 -0.5288 -0.1691
    5MOL     F3 8114   3.400   3.234   2.626  0.0010  0.0303 -0.3605
    5MOL    C24 8115   3.390   3.068   2.373 -0.2302 -0.4387  0.6562
    5MOL     F4 8116   3.494   2.977   2.368  0.3600 -0.2094 -0.0908
    5MOL     F5 8117   3.325   3.061   2.248  0.5393  0.3861  0.5881
    5MOL     F6 8118   3.304   3.026   2.469 -0.1111 -0.0378 -0.5665
    5MOL     O2 8119   3.482   3.763   2.275 -0.0777  0.1572 -0.0802
    5MOL    C25 8120   3.630   3.340   1.944  0.3450 -0.5051 -0.5736
    5MOL     N4 8121   3.754   3.334   1.885  0.2381  0.3100  0.2322
    5MOL    C26 8122   3.844   3.288   1.975 -0.3471  0.0436  0.2112
    5MOL     O3 8123   3.966   3.274   1.963  0.4645 -0.9795 -0.2811
    5MOL    C27 8124   3.309   4.136   1.771 -0.3483 -0.6806 -0.3333
    5MOL    C28 8125   3.206   4.165   1.690  0.0315  0.2276 -0.8384
    5MOL    C29 8126   3.373   4.010   1.755 -0.2131 -0.1000 -0.6210
    5MOL    C30 8127   3.153   4.072   1.603 -0.2784 -0.0938  0.6143
    5MOL    C31 8128   3.325   3.916   1.663 -0.2266  0.8335  0.5970
    5MOL    C32 8129   3.204   3.942   1.591 -0.2251  1.0758 -0.1791
    5MOL    C33 8130   3.148   3.848   1.508  0.4485 -0.3003  0.5732
    5MOL     N5 8131   3.190   3.838   1.372  0.5036  0.0153 -0.1668
    5MOL     N6 8132   3.016   3.791   1.513  0.9504 -0.7507 -0.5987
    5MOL    C34 8133   3.092   3.761   1.313  0.4132 -0.3435  0.1597
    5MOL    C35 8134   2.986   3.736   1.390 -0.0225 -0.1755 -0.0334
    5MOL    C36 8135   2.951   3.786   1.637  0.6137  0.3013  0.3132
    5MOL     H1 8136   2.945   3.680   1.659 -1.0379  1.1682  1.4244
    5MOL     H2 8137   2.849   3.827   1.629  2.3991  0.9852  2.8465
    5MOL     H3 8138   3.005   3.846   1.710 -2.6111  0.9635  2.5376
    5MOL    C37 8139   3.272   3.937   1.323  0.1525  0.3217  0.5922
    5MOL    C38 8140   3.411   3.933   1.344 -0.6230  0.3685  0.4288
    5MOL    C39 8141   3.491   4.048   1.316  1.0734  0.3273 -0.3508
    5MOL    C40 8142   3.433   4.169   1.303  0.4211 -0.5445 -0.0990
    5MOL    C41 8143   3.292   4.178   1.279 -0.0695  0.8102  0.3225
    5MOL    C42 8144   3.218   4.060   1.287 -0.0188  0.1918  0.2040
    5MOL    C43 8145   2.865   3.649   1.367  0.6955 -0.4222 -0.8144
    5MOL     F7 8146   2.827   3.575   1.476  0.4282  0.3486 -0.2010
    5MOL     F8 8147   2.889   3.580   1.256  0.4665 -0.4549 -0.4675
    5MOL     F9 8148   2.762   3.723   1.334 -0.0014  0.0097  0.2169
    5MOL    C44 8149   3.329   4.359   2.054  0.4625 -0.7866 -0.3633
    5MOL    C45 8150   3.427   4.405   1.977  0.4947  0.5712  0.0591
    5MOL    C46 8151   3.524   4.518   2.014 -0.0051  0.1071  0.4509
    5MOL    F10 8152   3.470   4.612   2.103 -0.3001 -0.0003 -0.4617
    5MOL    F11 8153   3.636   4.461   2.069 -0.3688  0.1606  0.0211
    5MOL     H4 8154   3.295   4.401   2.146 -0.4403 -1.4845 -1.2564
    5MOL     H5 8155   3.161   4.027   1.919  1.9578  0.5565  2.7683
    5MOL     H6 8156   3.132   3.803   2.042 -0.2452 -1.3226 -1.0686
    5MOL     H7 8157   3.329   4.216   2.272 -0.5720  0.0901 -2.7297
    5MOL     H8 8158   3.328   3.997   2.383  1.1072 -1.1296  1.6886
    5MOL     H9 8159   3.533   3.471   2.352  2.7283  1.4451 -1.1353
    5MOL    H10 8160   3.170   3.220   2.426 -2.1544 -0.2601 -2.7521
    5MOL    H11 8161   3.035   3.425   2.364  3.3112 -0.5585 -1.3394
    5MOL    H12 8162   3.739   3.145   2.421  2.7418 -1.5946  2.0848
    5MOL    H13 8163   3.445   3.286   2.140  2.3951  1.4659  3.4573
    5MOL    H14 8164   3.923   3.177   2.242  0.4176  1.0906  0.3398
    5MOL     O4 8165   3.530   3.399   1.912 -0.4744 -0.3209 -0.2510
    5MOL    H15 8166   3.156   4.253   1.714  2.5757 -0.7303  1.5109
    5MOL    H16 8167   3.076   4.095   1.535 -0.8682 -0.8730 -1.8389
    5MOL    H17 8168   3.455   3.987   1.814 -0.4643  2.1551 -1.3324
    5MOL    H18 8169   3.598   4.047   1.322  0.4892  1.3493 -0.8924
    5MOL    H19 8170   3.461   3.842   1.384 -1.9837  0.7146 -0.5554
    5MOL    H20 8171   3.247   4.275   1.271 -0.2121 -1.2233  2.0550
    5MOL    H21 8172   3.106   4.069   1.269 -0.8836 -0.6385 -0.6695
    5MOL    H22 8173   3.117   3.718   1.216 -1.2737  1.6397  1.7549
    5MOL    H23 8174   3.377   3.816   1.658 -2.9243  2.0104 -0.7528
    5MOL    F12 8175   3.557   4.590   1.906 -0.3925  0.5687 -0.5813
    5MOL    C47 8176   3.581   4.277   1.817 -0.5724  1.0318 -0.5828
    5MOL    H24 8177   3.656   4.361   1.797  4.3588  0.5844 -1.6270
    5MOL    H25 8178   3.579   4.227   1.722 -0.4039 -0.6963 -0.6943
    5MOL    H26 8179   3.626   4.213   1.892 -0.2935 -0.8329  1.2960
    5MOL     N1 8180   3.297   3.829   0.977  0.0433  0.4665 -0.1202
    5MOL     N2 8181   3.447   3.984   0.920  0.1261 -0.3033  0.1611
    5MOL     C1 8182   3.434   3.865   0.999 -0.3925 -0.0100  0.2191
    5MOL     C2 8183   3.543   4.012   0.821  0.0238 -0.2677 -0.2671
    5MOL     C3 8184   3.624   3.906   0.774  0.3464  0.7033 -0.6500
    5MOL     C4 8185   3.718   3.939   0.670  0.0153 -0.1293  0.3490
    5MOL     C5 8186   3.713   4.072   0.617  0.2283 -0.5001 -0.4107
    5MOL     C6 8187   3.631   4.167   0.665  0.5661 -0.7172 -0.1921
    5MOL     C7 8188   3.546   4.142   0.771  0.3267  0.4208 -0.5248
    5MOL     N3 8189   3.801   4.115   0.519 -0.6487  0.5360 -0.3734
    5MOL     C8 8190   3.768   4.168   0.392 -0.2312 -0.5798 -0.4409
    5MOL     C9 8191   3.893   4.241   0.342 -0.9215  0.2404 -0.0717
    5MOL    C10 8192   3.992   4.214   0.435 -0.7674  0.5602  0.2926
    5MOL    C11 8193   3.941   4.132   0.547 -0.3091  1.3456  0.0961
    5MOL     O1 8194   4.008   4.079   0.630 -0.4560  0.0891  0.2012
    5MOL    C12 8195   3.918   4.307   0.217  0.0029  0.4204 -0.2855
    5MOL    C13 8196   4.041   4.374   0.205  0.7840 -0.0939  0.3319
    5MOL    C14 8197   4.141   4.355   0.304  0.4784  0.2028 -0.4329
    5MOL    C15 8198   4.121   4.271   0.416 -0.3473  0.5102 -0.0979
    5MOL    C16 8199   3.936   4.490  -0.003  0.6121  0.4765  0.2731
    5MOL    C17 8200   3.849   4.582   0.067 -0.0427  1.1133 -0.7665
    5MOL    C18 8201   3.733   4.623   0.002  0.0476  0.2152 -0.4552
    5MOL    C19 8202   3.908   4.460  -0.134  0.3033  0.1613 -0.2924
    5MOL    C20 8203   3.698   4.578  -0.121 -0.4614  0.5332  0.0644
    5MOL    C21 8204   3.786   4.497  -0.192  0.9407 -0.0379  0.0746
    5MOL    C22 8205   4.067   4.461   0.074  0.5938  0.9413  0.2956
    5MOL    C23 8206   4.140   4.593   0.108  0.1654  0.3041  0.2384
    5MOL     F1 8207   4.134   4.661  -0.007 -0.4491 -0.4847  0.2200
    5MOL     F2 8208   4.268   4.582   0.122  0.3082  0.7599  0.1311
    5MOL     F3 8209   4.092   4.662   0.206  0.1235  0.1447  0.1078
    5MOL    C24 8210   4.156   4.367  -0.017  0.1113  0.8610  0.2631
    5MOL     F4 8211   4.079   4.260  -0.055 -0.1220 -0.1608  0.0671
    5MOL     F5 8212   4.266   4.320   0.053  0.0290  0.5228  0.0085
    5MOL     F6 8213   4.214   4.430  -0.124 -0.4565 -0.0787 -0.4806
    5MOL     O2 8214   3.658   4.160   0.345  0.0835 -0.3816 -0.2967
    5MOL    C25 8215   3.631   4.720   0.046  0.6150  0.2383 -0.0438
    5MOL     N4 8216   3.537   4.725  -0.052  0.5045 -0.4396 -0.3542
    5MOL    C26 8217   3.569   4.650  -0.163  0.7885 -0.5699 -0.3908
    5MOL     O3 8218   3.502   4.640  -0.264  0.7214  0.6370 -0.1086
    5MOL    C27 8219   3.515   3.786   1.083 -0.4321  0.2431 -0.3838
    5MOL    C28 8220   3.447   3.702   1.171  0.4938 -0.1487  0.5126
    5MOL    C29 8221   3.653   3.771   1.060 -1.3699 -0.2289  0.1539
    5MOL    C30 8222   3.515   3.604   1.244 -0.3633  0.1891 -0.3114
    5MOL    C31 8223   3.718   3.667   1.126 -0.0954  0.2224 -0.5414
    5MOL    C32 8224   3.649   3.577   1.214  0.0466 -0.8596  0.3420
    5MOL    C33 8225   3.696   3.452   1.250 -0.5497  0.0986 -0.6065
    5MOL     N5 8226   3.810   3.423   1.327  0.6905  0.0655 -0.6817
    5MOL     N6 8227   3.695   3.359   1.147 -0.1428 -0.0844  0.3392
    5MOL    C34 8228   3.900   3.365   1.236  0.4909 -0.1285  0.6620
    5MOL    C35 8229   3.832   3.326   1.130  1.1580 -0.3148 -0.3582
    5MOL    C36 8230   3.600   3.364   1.031 -0.0889  0.7711  0.1424
    5MOL     H1 8231   3.621   3.295   0.946 -0.4238  1.1403 -3.2701
    5MOL     H2 8232   3.581   3.464   0.990 -2.5594 -2.1080  0.8490
    5MOL     H3 8233   3.515   3.329   1.086  3.7437  2.0579  0.4411
    5MOL    C37 8234   3.815   3.411   1.463  0.1299 -0.5785 -0.1052
    5MOL    C38 8235   3.733   3.498   1.545 -0.3725  0.2355 -0.3126
    5MOL    C39 8236   3.721   3.477   1.683 -0.4281 -0.2308 -0.0824
    5MOL    C40 8237   3.780   3.366   1.743  0.8658  0.2893  0.4043
    5MOL    C41 8238   3.848   3.275   1.658 -0.7358 -0.0164  0.5831
    5MOL    C42 8239   3.867   3.296   1.521  0.1448 -0.2552  0.1623
    5MOL    C43 8240   3.882   3.263   1.006  0.3789  0.6293  0.0520
    5MOL     F7 8241   3.786   3.175   0.960 -0.1272 -0.0042 -0.5822
    5MOL     F8 8242   3.998   3.201   1.029 -0.3022 -0.0997 -0.0756
    5MOL     F9 8243   3.905   3.351   0.912  0.3764  0.0656 -0.0125
    5MOL    C44 8244   3.315   4.033   0.899 -0.5175  0.3480  0.9833
    5MOL    C45 8245   3.227   3.944   0.930 -0.4106 -0.3652 -0.2838
    5MOL    C46 8246   3.076   3.946   0.912 -0.3323  0.1269  0.2059
    5MOL    F10 8247   3.032   3.865   0.814  0.1558 -0.1861  0.3233
    5MOL    F11 8248   3.013   3.917   1.029  0.8171 -0.2031 -0.0509
    5MOL     H4 8249   3.305   4.127   0.857 -1.5308 -1.5961 -1.9553
    5MOL     H5 8250   3.604   3.804   0.806 -1.1085 -0.1828  1.9942
    5MOL     H6 8251   3.776   3.863   0.614 -1.1691  0.7130  2.6444
    5MOL     H7 8252   3.490   4.228   0.814  3.0546  0.8139  0.5461
    5MOL     H8 8253   3.634   4.270   0.621 -0.0936  0.7430 -1.1831
    5MOL     H9 8254   3.837   4.309   0.145 -0.1035  0.3825 -0.5927
    5MOL    H10 8255   4.230   4.413   0.292 -2.4757  0.9164 -0.7177
    5MOL    H11 8256   4.202   4.257   0.489 -3.9915  0.0338  1.3416
    5MOL    H12 8257   3.985   4.430  -0.204  0.9581  1.1486 -0.6982
    5MOL    H13 8258   3.866   4.613   0.171  0.4295  2.5125 -1.0700
    5MOL    H14 8259   3.762   4.484  -0.298 -1.5327  2.0199  1.4177
    5MOL     O4 8260   3.633   4.786   0.146  0.4884 -0.0460  0.1965
    5MOL    H15 8261   3.337   3.714   1.189 -0.2104  0.8427 -1.3828
    5MOL    H16 8262   3.455   3.528   1.299 -1.0118  2.0888  3.4095
    5MOL    H17 8263   3.720   3.842   1.007  1.2745 -1.6411  0.7402
    5MOL    H18 8264   3.658   3.551   1.742 -0.6403  1.6796 -0.6603
    5MOL    H19 8265   3.688   3.590   1.507  0.2794 -1.7074 -0.1570
    5MOL    H20 8266   3.880   3.178   1.699 -1.3363 -0.7223  1.6462
    5MOL    H21 8267   3.930   3.222   1.466 -1.0023  0.1124  0.3804
    5MOL    H22 8268   4.000   3.358   1.268 -0.8625 -1.2322 -0.4711
    5MOL    H23 8269   3.827   3.663   1.120  1.7326 -0.7081  0.1489
    5MOL    F12 8270   3.029   4.069   0.880  0.0425  0.5896 -0.1956
    5MOL    C47 8271   3.254   3.687   0.937  0.1614  0.0267 -0.1055
    5MOL    H24 8272   3.310   3.664   0.848 -0.6349  1.2461  3.8896
    5MOL    H25 8273   3.144   3.676   0.908  2.5267  1.9494  1.3076
    5MOL    H26 8274   3.282   3.614   1.014 -0.6834  0.7792 -2.3980
    5MOL     N1 8275   3.313   4.522  -0.714 -0.8890  0.3684  0.5205
    5MOL     N2 8276   3.155   4.395  -0.619  0.2265  0.4689  0.4001
    5MOL     C1 8277   3.224   4.514  -0.601 -0.7737  0.2727 -0.4335
    5MOL     C2 8278   3.095   4.321  -0.514 -0.4343 -0.0039  0.6726
    5MOL     C3 8279   3.025   4.387  -0.412 -0.4476 -0.0813 -0.2688
    5MOL     C4 8280   2.938   4.317  -0.329  0.0127 -0.5440 -0.4546
    5MOL     C5 8281   2.917   4.177  -0.353 -0.2894 -0.0494  0.9357
    5MOL     C6 8282   2.998   4.109  -0.450 -0.2527 -0.5250  0.7194
    5MOL     C7 8283   3.098   4.181  -0.521 -0.5406  0.7603 -0.3666
    5MOL     N3 8284   2.814   4.102  -0.292 -1.2555 -0.6819 -0.4373
    5MOL     C8 8285   2.836   3.987  -0.220  0.1814  0.1499 -0.1440
    5MOL     C9 8286   2.700   3.945  -0.165  0.4961  1.0955  0.0707
    5MOL    C10 8287   2.611   4.038  -0.219 -0.0757  0.0015  0.2255
    5MOL    C11 8288   2.686   4.138  -0.301 -0.1177  0.3194  0.2670
    5MOL     O1 8289   2.630   4.233  -0.355  0.3874  0.2239 -0.6098
    5MOL    C12 8290   2.666   3.831  -0.094 -0.2174 -0.0528  0.2209
    5MOL    C13 8291   2.525   3.819  -0.063  0.6718  0.0357 -0.4246
    5MOL    C14 8292   2.434   3.914  -0.110 -0.4310  0.6275  0.8569
    5MOL    C15 8293   2.472   4.024  -0.190 -0.6759  0.6388  0.6578
    5MOL    C16 8294   2.372   3.773   0.119  0.6111 -0.0525 -0.1812
    5MOL    C17 8295   2.230   3.765   0.109 -0.3136 -0.4843  0.0722
    5MOL    C18 8296   2.157   3.861   0.184 -0.4193 -0.3846 -0.4782
    5MOL    C19 8297   2.431   3.878   0.194 -1.3559 -0.2992  0.5987
    5MOL    C20 8298   2.217   3.961   0.261  0.4119 -0.3711  0.0580
    5MOL    C21 8299   2.356   3.972   0.265 -0.1641 -0.7897  0.3094
    5MOL    C22 8300   2.462   3.698   0.020  0.0836 -0.1819 -0.2913
    5MOL    C23 8301   2.387   3.605  -0.085 -0.0374  0.0916 -0.8174
    5MOL     F1 8302   2.462   3.564  -0.189  0.5165 -0.0011 -0.4131
    5MOL     F2 8303   2.282   3.668  -0.144 -0.0377  0.3307 -0.1819
    5MOL     F3 8304   2.334   3.496  -0.018 -0.3228 -0.2362 -0.4018
    5MOL    C24 8305   2.563   3.611   0.101  0.4382  0.4421  0.3498
    5MOL     F4 8306   2.503   3.528   0.190  0.6387 -0.7886  0.0121
    5MOL     F5 8307   2.641   3.690   0.169 -0.2506 -0.0963  0.2091
    5MOL     F6 8308   2.644   3.542   0.017  0.1416 -0.0936 -0.1348
    5MOL     O2 8309   2.944   3.934  -0.206  0.6857 -0.3188  0.3234
    5MOL    C25 8310   2.005   3.893   0.179 -0.3312 -0.0418 -0.1691
    5MOL     N4 8311   1.987   3.996   0.270  0.1201  0.0842  0.1361
    5MOL    C26 8312   2.110   4.046   0.320 -0.0141 -0.6405 -0.3043
    5MOL     O3 8313   2.117   4.129   0.407  0.5726  0.2940 -0.4640
    5MOL    C27 8314   3.181   4.624  -0.534 -0.4438  0.2967 -0.0652
    5MOL    C28 8315   3.263   4.691  -0.449 -0.3476  0.1935 -1.0388
    5MOL    C29 8316   3.049   4.666  -0.559 -0.5280  0.5931 -0.5071
    5MOL    C30 8317   3.222   4.801  -0.385 -0.1039 -0.3096  0.5337
    5MOL    C31 8318   3.000   4.768  -0.478 -0.4178 -0.7775  0.1517
    5MOL    C32 8319   3.083   4.837  -0.394  0.3979 -0.0225 -0.1575
    5MOL    C33 8320   3.035   4.949  -0.321 -0.2067  0.4590  0.0937
    5MOL     N5 8321   3.076   4.989  -0.194  0.0068  0.0743 -0.2491
    5MOL     N6 8322   2.914   5.021  -0.350  0.5672  0.4781  0.1829
    5MOL    C34 8323   2.982   5.081  -0.151 -0.4245  0.9065 -0.1477
    5MOL    C35 8324   2.885   5.099  -0.238 -0.1980  0.4709 -0.3372
    5MOL    C36 8325   2.888   5.076  -0.484  0.3780 -0.1811  0.4480
    5MOL     H1 8326   2.777   5.100  -0.501 -0.1499 -1.9436 -1.5036
    5MOL     H2 8327   2.916   5.000  -0.556  0.3958  2.0264  0.1109
    5MOL     H3 8328   2.950   5.163  -0.505 -1.9557 -2.1814  0.3836
    5MOL    C37 8329   3.190   4.941  -0.122  0.0198  0.1874 -0.4970
    5MOL    C38 8330   3.312   5.005  -0.122 -0.0051 -0.6233  1.6496
    5MOL    C39 8331   3.429   4.944  -0.087 -0.3460  0.5646  0.5697
    5MOL    C40 8332   3.426   4.809  -0.049  0.5031 -0.1090 -0.3216
    5MOL    C41 8333   3.304   4.745  -0.044 -0.0719  0.0529  0.4229
    5MOL    C42 8334   3.190   4.806  -0.080 -0.2886  0.1098  0.7920
    5MOL    C43 8335   2.765   5.185  -0.224  0.1585  0.1775  0.0122
    5MOL     F7 8336   2.728   5.252  -0.343  0.3517 -0.6822 -0.2830
    5MOL     F8 8337   2.793   5.279  -0.133 -0.5340  0.0360  0.1925
    5MOL     F9 8338   2.665   5.117  -0.173  0.3573 -0.5616  0.4086
    5MOL    C44 8339   3.183   4.351  -0.755  0.4706 -0.1664  0.2263
    5MOL    C45 8340   3.277   4.425  -0.808  0.2877 -0.1478  0.4827
    5MOL    C46 8341   3.337   4.418  -0.947  0.1216  0.3744 -0.0328
    5MOL    F10 8342   3.388   4.531  -0.998  0.6183  0.2018 -0.2380
    5MOL    F11 8343   3.434   4.328  -0.969 -0.6511  0.3267  0.2895
    5MOL     H4 8344   3.131   4.268  -0.799  0.5149  1.0547 -0.4728
    5MOL     H5 8345   3.037   4.492  -0.388  3.0423  1.2814  0.5260
    5MOL     H6 8346   2.883   4.377  -0.255  3.3898  1.4740 -1.2869
    5MOL     H7 8347   3.148   4.133  -0.598  0.5549  2.2719  1.1600
    5MOL     H8 8348   2.996   3.997  -0.463  0.0890  2.7325 -2.7693
    5MOL     H9 8349   2.737   3.751  -0.066  1.0117  1.4984  1.3710
    5MOL    H10 8350   2.328   3.912  -0.088 -0.7747 -2.2548  1.5631
    5MOL    H11 8351   2.402   4.099  -0.236 -1.3729 -0.9138  1.1362
    5MOL    H12 8352   2.542   3.894   0.178  0.5401  1.7119  1.8350
    5MOL    H13 8353   2.171   3.694   0.061 -2.5399  2.3991 -1.5725
    5MOL    H14 8354   2.392   4.065   0.311 -2.5092 -0.8383  2.3125
    5MOL     O4 8355   1.920   3.839   0.112  0.3619 -0.3436  0.1040
    5MOL    H15 8356   3.371   4.667  -0.447 -1.6872  0.1864  1.7107
    5MOL    H16 8357   3.299   4.857  -0.337 -0.4367 -0.3101  1.9177
    5MOL    H17 8358   2.981   4.601  -0.610  0.1770  1.7845  3.3044
    5MOL    H18 8359   3.531   4.996  -0.096  2.6749 -0.5127 -1.5600
    5MOL    H19 8360   3.323   5.105  -0.168  0.6039  2.1177  0.0286
    5MOL    H20 8361   3.283   4.637  -0.028 -0.1684 -1.2951 -1.5905
    5MOL    H21 8362   3.093   4.747  -0.073 -2.7309  0.6696  0.6238
    5MOL    H22 8363   2.998   5.116  -0.053  1.7710 -1.2041  0.0565
    5MOL    H23 8364   2.892   4.779  -0.485  2.6452 -0.3570 -0.8708
    5MOL    F12 8365   3.245   4.395  -1.042 -0.0519 -0.0771  0.5366
    5MOL    C47 8366   3.452   4.560  -0.699  0.4691 -0.4596 -0.5110
    5MOL    H24 8367   3.470   4.651  -0.757  2.1601 -1.0196  0.2098
    5MOL    H25 8368   3.512   4.474  -0.724 -1.1943  0.9218  2.5766
    5MOL    H26 8369   3.452   4.583  -0.592  0.1295 -0.2337  0.8891
    5MOL     N1 8370   1.996   3.532   0.783 -0.2841 -0.0157 -0.0077
    5MOL     N2 8371   2.140   3.684   0.873  0.1056 -0.7992 -1.0343
    5MOL     C1 8372   2.003   3.669   0.835  0.0371  0.5759 -0.3976
    5MOL     C2 8373   2.188   3.783   0.965  0.6510  0.3562  0.9298
    5MOL     C3 8374   2.170   3.919   0.945  0.4940  0.2100 -0.5572
    5MOL     C4 8375   2.218   4.013   1.039  0.6413 -0.2640 -0.0413
    5MOL     C5 8376   2.278   3.957   1.159 -0.6408  0.3959  0.7506
    5MOL     C6 8377   2.312   3.823   1.166  0.0068 -0.3016  0.4981
    5MOL     C7 8378   2.267   3.735   1.071 -0.0559  0.5022 -0.3331
    5MOL     N3 8379   2.341   4.046   1.252 -0.3496  0.3414  0.2725
    5MOL     C8 8380   2.481   4.047   1.285 -0.2170 -0.4347  0.5040
    5MOL     C9 8381   2.492   4.134   1.402 -0.2407  0.3634  0.2300
    5MOL    C10 8382   2.379   4.204   1.421  0.3448  0.5427  0.5794
    5MOL    C11 8383   2.275   4.146   1.322  0.2615  0.1554 -0.6488
    5MOL     O1 8384   2.160   4.176   1.317  0.2345  0.1170 -0.3225
    5MOL    C12 8385   2.610   4.174   1.465  0.2297  0.0357 -0.2087
    5MOL    C13 8386   2.604   4.276   1.568  0.2959  0.4787  0.1070
    5MOL    C14 8387   2.475   4.335   1.600  0.5453  0.1568  0.0471
    5MOL    C15 8388   2.364   4.309   1.518  0.6255 -0.1212 -0.9659
    5MOL    C16 8389   2.819   4.413   1.527 -0.0960  0.2482 -0.2922
    5MOL    C17 8390   2.962   4.412   1.521  0.2829  0.0693 -0.6604
    5MOL    C18 8391   3.017   4.498   1.423  0.2854 -0.3905 -0.3930
    5MOL    C19 8392   2.740   4.500   1.451  0.2736  0.4455 -0.3753
    5MOL    C20 8393   2.938   4.562   1.331 -0.2787  0.1259  0.5043
    5MOL    C21 8394   2.803   4.570   1.345 -0.2964 -0.1447  0.2217
    5MOL    C22 8395   2.741   4.332   1.634 -0.1047  0.2295  0.2388
    5MOL    C23 8396   2.707   4.439   1.749  0.1362  0.5515 -0.4311
    5MOL     F1 8397   2.646   4.378   1.853  0.0284  0.1647 -0.2377
    5MOL     F2 8398   2.632   4.547   1.708 -0.0495 -0.0030 -0.0557
    5MOL     F3 8399   2.820   4.496   1.798  0.1813 -0.0162  0.3039
    5MOL    C24 8400   2.824   4.216   1.702 -0.0843  0.1713 -0.4949
    5MOL     F4 8401   2.939   4.252   1.759 -0.2028 -0.2515 -0.1618
    5MOL     F5 8402   2.865   4.116   1.618  0.4429 -0.1332  0.0556
    5MOL     F6 8403   2.759   4.161   1.810 -0.0512  0.0309  0.1484
    5MOL     O2 8404   2.572   3.990   1.226  0.7050  0.8315 -0.1238
    5MOL    C25 8405   3.161   4.534   1.392 -0.1476 -0.2220  0.2266
    5MOL     N4 8406   3.153   4.608   1.271 -0.0709  0.1459  0.5361
    5MOL    C26 8407   3.025   4.631   1.235  0.3322 -0.0109 -0.4034
    5MOL     O3 8408   2.990   4.699   1.143  0.3961  0.2660 -0.1701
    5MOL    C27 8409   1.908   3.764   0.806 -0.0789  0.3499 -0.3244
    5MOL    C28 8410   1.936   3.874   0.726 -0.5781  0.0796 -0.5166
    5MOL    C29 8411   1.774   3.745   0.850  0.0038 -0.1451  0.2304
    5MOL    C30 8412   1.840   3.971   0.708 -0.5399 -0.4256 -0.1726
    5MOL    C31 8413   1.675   3.838   0.815 -0.2156  0.0669  0.3927
    5MOL    C32 8414   1.712   3.961   0.754  0.2181  0.6908 -0.1963
    5MOL    C33 8415   1.611   4.060   0.737 -0.1073 -0.2699  0.3157
    5MOL     N5 8416   1.582   4.135   0.617  0.0084  0.7605  0.2739
    5MOL     N6 8417   1.506   4.096   0.830  0.1005  0.5575  0.3431
    5MOL    C34 8418   1.454   4.185   0.633  0.6187  0.4123 -0.0966
    5MOL    C35 8419   1.409   4.173   0.761 -0.8864 -0.7551 -0.6865
    5MOL    C36 8420   1.511   4.069   0.976 -0.3917 -0.3700 -0.5660
    5MOL     H1 8421   1.497   4.160   1.032 -0.8862  0.3762 -0.9377
    5MOL     H2 8422   1.601   4.011   0.999 -1.7392  0.9097 -0.2329
    5MOL     H3 8423   1.429   3.998   1.004  0.3051 -1.2221 -3.1387
    5MOL    C37 8424   1.644   4.106   0.497  0.0730  0.4486  0.5906
    5MOL    C38 8425   1.656   3.972   0.448  0.2227 -0.4957 -0.1488
    5MOL    C39 8426   1.763   3.937   0.362 -0.5127 -0.2729 -0.9932
    5MOL    C40 8427   1.858   4.036   0.318  0.8479 -0.1817  0.3850
    5MOL    C41 8428   1.830   4.170   0.351  0.5323 -0.2103 -0.4703
    5MOL    C42 8429   1.725   4.205   0.435  0.5539 -0.4429 -0.2030
    5MOL    C43 8430   1.274   4.209   0.824 -0.3554  0.0714  0.4295
    5MOL     F7 8431   1.307   4.274   0.937 -0.1362 -0.2182 -0.5694
    5MOL     F8 8432   1.215   4.090   0.855 -0.5308 -0.0967  0.1590
    5MOL     F9 8433   1.198   4.287   0.748 -0.1748  0.6036 -0.3084
    5MOL    C44 8434   2.206   3.562   0.834 -0.0896 -0.5199 -0.1091
    5MOL    C45 8435   2.124   3.473   0.792  0.2333  0.3705 -0.3282
    5MOL    C46 8436   2.163   3.331   0.749  0.0801  0.1180 -0.1999
    5MOL    F10 8437   2.300   3.316   0.731  0.5400  0.1821  0.0515
    5MOL    F11 8438   2.133   3.237   0.836  0.4853 -0.4064  0.4581
    5MOL     H4 8439   2.310   3.549   0.852 -2.1824  1.4075  2.2497
    5MOL     H5 8440   2.122   3.957   0.852 -1.6030 -0.3518 -1.3936
    5MOL     H6 8441   2.216   4.120   1.016  0.5803  1.6103  2.5798
    5MOL     H7 8442   2.298   3.628   1.081 -0.2636 -3.3104  0.7062
    5MOL     H8 8443   2.371   3.797   1.245  0.2769  0.3713 -0.4365
    5MOL     H9 8444   2.707   4.126   1.442 -0.2064  0.8576  1.0852
    5MOL    H10 8445   2.463   4.407   1.676  1.6679  0.6376 -1.2509
    5MOL    H11 8446   2.269   4.362   1.539  1.5629  1.4634 -0.8020
    5MOL    H12 8447   2.626   4.508   1.467 -1.3549  0.9418 -2.0465
    5MOL    H13 8448   3.026   4.357   1.582 -1.4284  3.2421 -4.2797
    5MOL    H14 8449   2.734   4.620   1.278 -3.0074 -0.1202  0.6389
    5MOL     O4 8450   3.261   4.515   1.457 -0.3177  0.0305  0.1546
    5MOL    H15 8451   2.037   3.878   0.689 -0.3790  0.2811 -0.4515
    5MOL    H16 8452   1.872   4.066   0.659 -2.4838  1.2030  0.0044
    5MOL    H17 8453   1.750   3.660   0.915 -0.2762 -1.4247  0.1052
    5MOL    H18 8454   1.771   3.832   0.353  0.8135 -0.9791 -2.2864
    5MOL    H19 8455   1.608   3.886   0.506  1.3234 -0.6598  3.2062
    5MOL    H20 8456   1.896   4.253   0.323 -1.9859  2.3704  0.7634
    5MOL    H21 8457   1.720   4.313   0.462 -2.2290  0.6158  0.0995
    5MOL    H22 8458   1.399   4.236   0.556 -0.9818 -0.9675  1.5621
    5MOL    H23 8459   1.571   3.827   0.845  1.4447 -0.9569 -0.2883
    5MOL    F12 8460   2.106   3.310   0.628  0.2305 -0.3434 -0.1188
    5MOL    C47 8461   1.875   3.478   0.719 -0.3896  0.4193  0.3591
    5MOL    H24 8462   1.874   3.367   0.731  0.9559  1.6224  1.5136
    5MOL    H25 8463   1.871   3.498   0.611  1.5655  1.3582 -0.1538
    5MOL    H26 8464   1.784   3.522   0.767  1.7101  1.4916  3.1372
    5MOL     N1 8465   2.982   4.370   0.971 -0.0851 -0.3112  0.0975
    5MOL     N2 8466   2.835   4.499   0.860  0.5894  0.6874 -0.2856
    5MOL     C1 8467   2.970   4.482   0.887  0.3099  0.1695 -0.0046
    5MOL     C2 8468   2.767   4.577   0.762  0.4864 -0.0277 -0.3106
    5MOL     C3 8469   2.833   4.660   0.667 -0.6072 -0.1694  0.0244
    5MOL     C4 8470   2.759   4.738   0.578 -0.2819  0.0041 -0.4380
    5MOL     C5 8471   2.619   4.734   0.572 -0.4635 -0.5449  0.2602
    5MOL     C6 8472   2.554   4.664   0.677  0.3774 -0.2190 -1.0507
    5MOL     C7 8473   2.625   4.578   0.765 -0.4923  0.0514  0.1668
    5MOL     N3 8474   2.546   4.834   0.501  0.1682 -0.0002  0.8403
    5MOL     C8 8475   2.508   4.955   0.564 -0.1189 -0.2120 -0.2805
    5MOL     C9 8476   2.504   5.055   0.457  0.3439  0.4689  0.1699
    5MOL    C10 8477   2.509   4.990   0.336 -0.3426 -0.4820  0.4629
    5MOL    C11 8478   2.539   4.840   0.361 -0.3242  0.1556  0.2123
    5MOL     O1 8479   2.575   4.756   0.277 -0.0379 -0.2824 -0.6691
    5MOL    C12 8480   2.515   5.193   0.471  0.2111  0.1836  0.1726
    5MOL    C13 8481   2.536   5.263   0.351  0.6424  0.5358  0.1457
    5MOL    C14 8482   2.522   5.196   0.222 -0.3468 -0.1811 -0.1675
    5MOL    C15 8483   2.524   5.055   0.215  0.0199 -0.8417  0.3600
    5MOL    C16 8484   2.733   5.386   0.417 -0.7896 -0.0811  0.1529
    5MOL    C17 8485   2.780   5.464   0.529  0.4095 -0.2966 -0.4408
    5MOL    C18 8486   2.911   5.433   0.571 -0.6059 -0.2067  0.1902
    5MOL    C19 8487   2.816   5.287   0.360  0.0841  0.9844  0.4437
    5MOL    C20 8488   2.988   5.330   0.513  0.4706  0.4701  0.2037
    5MOL    C21 8489   2.942   5.256   0.401  0.3888  0.5021 -0.7594
    5MOL    C22 8490   2.597   5.409   0.364  0.9575 -0.4965 -0.2001
    5MOL    C23 8491   2.618   5.490   0.220 -0.3894  0.6412 -0.9771
    5MOL     F1 8492   2.683   5.612   0.244  0.4267 -0.4650  0.4146
    5MOL     F2 8493   2.495   5.510   0.164 -0.0946  0.5069  0.2640
    5MOL     F3 8494   2.696   5.429   0.127  0.3456  0.0545  0.7766
    5MOL    C24 8495   2.497   5.500   0.442  0.4324  0.7584  0.4210
    5MOL     F4 8496   2.377   5.489   0.383  0.4316 -0.3961 -0.0190
    5MOL     F5 8497   2.532   5.629   0.443 -0.2189  0.1467  0.2516
    5MOL     F6 8498   2.473   5.466   0.567 -0.1338 -0.1898  0.0656
    5MOL     O2 8499   2.499   4.977   0.682 -0.4299 -0.1810 -0.3047
    5MOL    C25 8500   2.995   5.493   0.680  0.0564  0.5415  0.2806
    5MOL     N4 8501   3.120   5.438   0.671  0.2901 -0.3770  0.0685
    5MOL    C26 8502   3.120   5.333   0.580 -0.6475 -0.8650  0.5251
    5MOL     O3 8503   3.216   5.261   0.564 -0.3585 -0.3833  0.7452
    5MOL    C27 8504   3.074   4.569   0.856 -0.2290 -0.6761 -0.4925
    5MOL    C28 8505   3.064   4.710   0.878  0.3601  0.3726  0.2851
    5MOL    C29 8506   3.183   4.518   0.778  0.4447  0.0826  0.1008
    5MOL    C30 8507   3.171   4.791   0.852 -0.0902 -0.2062  0.0776
    5MOL    C31 8508   3.297   4.601   0.760  0.1586  0.4391 -0.2179
    5MOL    C32 8509   3.287   4.739   0.793  0.1884  0.3514 -0.4119
    5MOL    C33 8510   3.397   4.829   0.792  0.2689  0.1643  0.1966
    5MOL     N5 8511   3.485   4.833   0.900  0.3165 -0.0957 -0.1649
    5MOL     N6 8512   3.401   4.955   0.725 -0.5866 -0.2172 -0.4295
    5MOL    C34 8513   3.569   4.948   0.870 -0.4833  0.4486  0.1675
    5MOL    C35 8514   3.522   5.013   0.764  0.1176 -0.1127 -0.5098
    5MOL    C36 8515   3.341   4.980   0.594  0.3933  0.4183  0.0921
    5MOL     H1 8516   3.340   5.084   0.567  2.3485  0.5333 -2.4947
    5MOL     H2 8517   3.243   4.936   0.595  1.5229  0.9669  0.1245
    5MOL     H3 8518   3.393   4.914   0.515 -3.3097  0.4176  0.4710
    5MOL    C37 8519   3.430   4.791   1.025 -0.2488  0.8775  0.1416
    5MOL    C38 8520   3.437   4.654   1.039  0.0564  0.2860 -0.2807
    5MOL    C39 8521   3.350   4.590   1.124  0.4834  0.6286 -0.4520
    5MOL    C40 8522   3.261   4.664   1.203  0.2687 -1.1611 -0.6619
    5MOL    C41 8523   3.269   4.809   1.200 -0.3755  0.0184 -0.3663
    5MOL    C42 8524   3.360   4.867   1.115 -0.0809 -0.2013 -0.4061
    5MOL    C43 8525   3.574   5.134   0.691  0.1538 -0.6494  0.8753
    5MOL     F7 8526   3.578   5.131   0.555  0.4566 -0.1072  0.2472
    5MOL     F8 8527   3.700   5.155   0.738  0.4773  0.3694 -0.3888
    5MOL     F9 8528   3.499   5.237   0.735 -0.4536 -0.3990  0.3618
    5MOL    C44 8529   2.766   4.420   0.959 -0.0523  0.2312  0.3658
    5MOL    C45 8530   2.853   4.345   1.022  0.5632 -0.4240  0.5019
    5MOL    C46 8531   2.813   4.246   1.134  0.2166 -0.5683 -0.1183
    5MOL    F10 8532   2.691   4.277   1.182  0.2006  0.4940 -0.3814
    5MOL    F11 8533   2.798   4.119   1.084 -0.0603  0.0828  0.2307
    5MOL     H4 8534   2.662   4.436   0.985  2.8312 -3.4376 -1.0250
    5MOL     H5 8535   2.940   4.665   0.669 -1.3878  0.3576  0.7655
    5MOL     H6 8536   2.811   4.799   0.513 -1.7193 -1.2542  1.0376
    5MOL     H7 8537   2.565   4.522   0.842 -3.1372 -0.3427 -1.3937
    5MOL     H8 8538   2.447   4.671   0.685  2.7606 -2.4849  1.7238
    5MOL     H9 8539   2.536   5.240   0.571 -0.2619  0.7816  0.3190
    5MOL    H10 8540   2.531   5.252   0.126 -0.5972  1.6892 -0.0867
    5MOL    H11 8541   2.541   5.002   0.119  2.4734  2.2635 -0.7615
    5MOL    H12 8542   2.776   5.229   0.278 -2.6916  0.4487  4.0196
    5MOL    H13 8543   2.725   5.553   0.560  1.7928 -0.5583  0.7264
    5MOL    H14 8544   2.991   5.166   0.364  0.8149 -1.1592  0.8372
    5MOL     O4 8545   2.956   5.575   0.757 -0.3740 -0.3330 -0.1981
    5MOL    H15 8546   2.981   4.753   0.930  0.1200  1.7144  2.6743
    5MOL    H16 8547   3.162   4.894   0.875 -0.5298  1.7619  0.7775
    5MOL    H17 8548   3.188   4.416   0.751 -2.1414  2.3812 -1.2276
    5MOL    H18 8549   3.344   4.480   1.133  0.0559  0.9451 -0.7441
    5MOL    H19 8550   3.514   4.596   0.984  0.3768  0.8726  1.9175
    5MOL    H20 8551   3.197   4.865   1.265 -0.6657 -1.9506  1.5131
    5MOL    H21 8552   3.351   4.975   1.109  0.9976 -1.2501  2.5580
    5MOL    H22 8553   3.645   4.979   0.942  0.0031  2.9559  0.7785
    5MOL    H23 8554   3.392   4.562   0.719 -0.9955 -0.3622 -0.1358
    5MOL    F12 8555   2.896   4.258   1.238  0.3265  0.1191  0.3334
    5MOL    C47 8556   3.108   4.327   1.041 -0.2647 -0.9940  0.4654
    5MOL    H24 8557   3.100   4.228   1.081 -1.2988 -0.0326 -0.7381
    5MOL    H25 8558   3.134   4.396   1.125  0.2708  1.2110 -1.5250
    5MOL    H26 8559   3.187   4.325   0.964  2.0847  1.3209 -0.1769
    5MOL     N1 8560   3.732   5.745   0.247  0.5105 -0.1839 -0.1690
    5MOL     N2 8561   3.873   5.567   0.209  0.3719  0.1063 -0.2557
    5MOL     C1 8562   3.795   5.639   0.306 -0.1953  0.4172 -0.0424
    5MOL     C2 8563   3.950   5.455   0.224  0.3922  0.1120 -0.4373
    5MOL     C3 8564   3.986   5.404   0.352  0.0708  0.2469  0.2903
    5MOL     C4 8565   4.071   5.294   0.364  0.2977  0.0050  0.0014
    5MOL     C5 8566   4.112   5.227   0.247 -0.6197  0.0284 -0.5801
    5MOL     C6 8567   4.067   5.265   0.121  0.3947 -0.0229  0.2751
    5MOL     C7 8568   3.989   5.378   0.108 -0.5458 -0.3086  0.4344
    5MOL     N3 8569   4.198   5.116   0.256 -0.1595 -0.2401  0.0171
    5MOL     C8 8570   4.331   5.124   0.213  0.2523  0.2354 -0.5189
    5MOL     C9 8571   4.396   4.993   0.244 -0.2289  0.7793 -0.1175
    5MOL    C10 8572   4.297   4.910   0.304  0.5871 -0.3036 -0.0397
    5MOL    C11 8573   4.168   4.989   0.307 -0.1112 -0.4096 -0.3074
    5MOL     O1 8574   4.060   4.942   0.350  0.9546  0.1994  0.4232
    5MOL    C12 8575   4.523   4.945   0.216  0.0757  0.0205  0.3713
    5MOL    C13 8576   4.562   4.817   0.269  0.6801  0.3137  1.0012
    5MOL    C14 8577   4.461   4.732   0.330  0.0098 -0.1739  0.4693
    5MOL    C15 8578   4.328   4.777   0.355  0.4911 -0.4098  0.4539
    5MOL    C16 8579   4.814   4.860   0.278  0.0501 -0.0002 -0.7468
    5MOL    C17 8580   4.789   4.961   0.375  0.3911 -0.4495  0.0422
    5MOL    C18 8581   4.900   5.028   0.427  0.0550  0.3515 -0.1468
    5MOL    C19 8582   4.946   4.851   0.223 -0.1618 -0.3635 -0.8091
    5MOL    C20 8583   5.027   5.012   0.376  0.2432 -0.2704 -0.4196
    5MOL    C21 8584   5.059   4.922   0.273 -0.4674 -0.1472  0.0822
    5MOL    C22 8585   4.705   4.763   0.228  0.1861  0.4544 -0.6389
    5MOL    C23 8586   4.728   4.628   0.298 -0.3710 -0.2198 -0.3126
    5MOL     F1 8587   4.857   4.601   0.290  0.0654  0.2417  0.4350
    5MOL     F2 8588   4.660   4.529   0.245  0.6979  0.5626  0.1846
    5MOL     F3 8589   4.705   4.627   0.431  0.2646  0.6326  0.1814
    5MOL    C24 8590   4.691   4.749   0.071 -0.8638  0.3318  1.1267
    5MOL     F4 8591   4.559   4.707   0.037  0.4434 -0.7699 -0.5080
    5MOL     F5 8592   4.779   4.658   0.025 -0.1786 -0.3283 -0.7822
    5MOL     F6 8593   4.718   4.866   0.006 -0.0100  0.7765  0.2759
    5MOL     O2 8594   4.379   5.220   0.164  0.1110 -0.2786 -0.6450
    5MOL    C25 8595   4.906   5.125   0.542  0.4604  0.6514 -0.8029
    5MOL     N4 8596   5.036   5.151   0.562 -0.1432 -0.4873  0.2970
    5MOL    C26 8597   5.111   5.096   0.465 -0.4851 -0.3403 -0.3439
    5MOL     O3 8598   5.227   5.117   0.448 -0.0115 -0.4046 -0.0223
    5MOL    C27 8599   3.787   5.620   0.450 -0.1157  0.5827  0.9396
    5MOL    C28 8600   3.855   5.705   0.538  0.4151  0.5746 -0.5931
    5MOL    C29 8601   3.703   5.520   0.495 -0.0189  0.0706  0.0854
    5MOL    C30 8602   3.827   5.692   0.674 -0.0074  0.0525 -0.4428
    5MOL    C31 8603   3.686   5.505   0.630 -0.6348 -0.5042 -0.1948
    5MOL    C32 8604   3.738   5.596   0.721  0.5119 -0.3203 -0.0313
    5MOL    C33 8605   3.709   5.588   0.856  0.5811 -0.0466 -0.3496
    5MOL     N5 8606   3.585   5.610   0.911 -0.0574  0.2189  0.8483
    5MOL     N6 8607   3.810   5.573   0.959 -0.2704  0.0121 -0.5028
    5MOL    C34 8608   3.613   5.634   1.048 -0.0215  0.6326 -0.1979
    5MOL    C35 8609   3.742   5.620   1.073 -0.4712 -0.4120 -0.5776
    5MOL    C36 8610   3.937   5.498   0.940 -0.1533  0.5395 -0.1645
    5MOL     H1 8611   4.000   5.517   1.034  3.0005  2.4552  1.3527
    5MOL     H2 8612   3.984   5.528   0.844 -0.1273  0.9038  0.7897
    5MOL     H3 8613   3.908   5.388   0.919 -0.2706  0.6947 -1.8015
    5MOL    C37 8614   3.464   5.579   0.850 -0.2599  0.0147  0.1677
    5MOL    C38 8615   3.424   5.639   0.732  0.8657  0.0562  0.7416
    5MOL    C39 8616   3.307   5.593   0.671 -0.1977  1.1179  0.8119
    5MOL    C40 8617   3.225   5.495   0.733  0.5099 -0.2482  0.5485
    5MOL    C41 8618   3.265   5.438   0.857  0.4304 -0.6095 -0.0099
    5MOL    C42 8619   3.379   5.486   0.918  0.0318 -0.0535  0.0622
    5MOL    C43 8620   3.820   5.664   1.198  0.3215  0.7074 -0.9320
    5MOL     F7 8621   3.933   5.596   1.219 -0.0591 -0.0318 -0.0555
    5MOL     F8 8622   3.754   5.647   1.318  0.3322 -0.3486 -0.4316
    5MOL     F9 8623   3.834   5.797   1.193 -0.2403  0.0671  0.0869
    5MOL    C44 8624   3.856   5.645   0.090  0.5409 -0.4627  0.0087
    5MOL    C45 8625   3.770   5.744   0.110 -0.2245  0.1243 -0.1669
    5MOL    C46 8626   3.742   5.856   0.011  0.1142  0.4926  0.1723
    5MOL    F10 8627   3.610   5.875  -0.001 -0.5841 -0.5981  0.1378
    5MOL    F11 8628   3.819   5.965   0.036  0.7384 -0.1782  0.0310
    5MOL     H4 8629   3.916   5.620   0.004 -1.9040  0.9201 -0.2749
    5MOL     H5 8630   3.959   5.462   0.442 -1.4590  0.7232 -1.1237
    5MOL     H6 8631   4.114   5.281   0.464 -2.3027  1.3972  0.9128
    5MOL     H7 8632   3.966   5.424   0.015 -1.0689  3.7559  1.4791
    5MOL     H8 8633   4.094   5.215   0.026 -0.1291  1.2156 -2.9039
    5MOL     H9 8634   4.597   5.011   0.178 -5.0154  1.2463  0.2869
    5MOL    H10 8635   4.487   4.634   0.364  0.6498  1.2110  0.3961
    5MOL    H11 8636   4.258   4.708   0.400 -1.2232  0.4551 -0.6554
    5MOL    H12 8637   4.959   4.798   0.129  0.4235  1.8302 -1.6809
    5MOL    H13 8638   4.694   4.962   0.422  0.0559  1.7056 -0.0867
    5MOL    H14 8639   5.159   4.901   0.237 -1.1842 -0.2643 -0.8432
    5MOL     O4 8640   4.814   5.168   0.612  0.6203  0.2688 -0.2243
    5MOL    H15 8641   3.912   5.785   0.503 -0.0114 -2.4332 -1.5804
    5MOL    H16 8642   3.872   5.765   0.747  0.9211 -0.0153  2.0363
    5MOL    H17 8643   3.643   5.452   0.431 -1.3938 -0.4311 -0.0577
    5MOL    H18 8644   3.272   5.642   0.581  0.0977  0.7165 -0.2967
    5MOL    H19 8645   3.477   5.713   0.673  0.4701 -0.4492  1.2297
    5MOL    H20 8646   3.206   5.359   0.907  0.6701 -2.0946 -3.0719
    5MOL    H21 8647   3.420   5.442   1.013  0.0023  1.3497 -0.1561
    5MOL    H22 8648   3.543   5.674   1.118 -0.0149  3.6471 -1.6178
    5MOL    H23 8649   3.621   5.426   0.668  0.5224 -0.0524  1.8706
    5MOL    F12 8650   3.775   5.813  -0.112  0.2956  0.4495 -0.3766
    5MOL    C47 8651   3.622   5.826   0.301 -0.8381 -0.0609 -0.1073
    5MOL    H24 8652   3.532   5.772   0.324  1.8766  1.2015 -0.4409
    5MOL    H25 8653   3.606   5.903   0.224 -0.8942 -1.5547  0.3662
    5MOL    H26 8654   3.675   5.868   0.391  0.6339  2.6533 -1.8347
    5MOL     N1 8655   4.633   5.538   0.866 -0.1063 -0.0138 -0.1585
    5MOL     N2 8656   4.575   5.639   1.065  0.1050  0.6277 -1.2125
    5MOL     C1 8657   4.677   5.569   0.993 -0.1789 -0.5305 -0.1808
    5MOL     C2 8658   4.543   5.618   1.199 -0.1847 -0.0975  0.6030
    5MOL     C3 8659   4.615   5.522   1.272 -0.4137  0.1563 -0.6436
    5MOL     C4 8660   4.569   5.487   1.397 -0.2409 -0.2472  0.0704
    5MOL     C5 8661   4.454   5.550   1.451 -0.3438  0.6781  0.7427
    5MOL     C6 8662   4.388   5.656   1.384 -0.3415 -0.7540  0.8169
    5MOL     C7 8663   4.429   5.683   1.252 -0.2795  0.8659  0.5063
    5MOL     N3 8664   4.416   5.519   1.584  0.5707  0.0619 -0.5228
    5MOL     C8 8665   4.476   5.594   1.682 -0.3007 -0.6417 -0.3896
    5MOL     C9 8666   4.423   5.535   1.803  0.3778  0.6702  0.5971
    5MOL    C10 8667   4.341   5.427   1.775  0.1362 -0.0980  0.3782
    5MOL    C11 8668   4.333   5.409   1.627  0.3853  0.2901  0.2997
    5MOL     O1 8669   4.271   5.333   1.550 -0.6280 -0.1028 -0.5648
    5MOL    C12 8670   4.453   5.566   1.937  0.2484  0.0175 -0.1439
    5MOL    C13 8671   4.389   5.499   2.045 -0.6039  0.5115 -0.6347
    5MOL    C14 8672   4.324   5.376   2.014  0.0799 -0.6257  0.1032
    5MOL    C15 8673   4.300   5.342   1.874 -0.9049 -0.2041 -0.0602
    5MOL    C16 8674   4.504   5.429   2.253  0.1890 -0.6210 -0.5178
    5MOL    C17 8675   4.465   5.339   2.355 -0.0969 -0.5800 -0.1653
    5MOL    C18 8676   4.548   5.233   2.390  0.5899  0.4173  0.2731
    5MOL    C19 8677   4.621   5.394   2.174 -0.4120  0.1176  1.1338
    5MOL    C20 8678   4.667   5.212   2.327 -0.1320  0.2794  0.1193
    5MOL    C21 8679   4.702   5.282   2.211  0.5779 -0.4454  0.4094
    5MOL    C22 8680   4.416   5.540   2.194 -0.2387  0.4163  0.3126
    5MOL    C23 8681   4.497   5.678   2.204  0.0699 -0.6001 -0.3565
    5MOL     F1 8682   4.635   5.668   2.186 -0.2791  0.5016 -0.1496
    5MOL     F2 8683   4.495   5.724   2.331 -0.2178 -0.2126 -0.3003
    5MOL     F3 8684   4.446   5.792   2.144  0.0485  0.0445  0.2267
    5MOL    C24 8685   4.276   5.554   2.252  0.5962  0.1277 -0.2980
    5MOL     F4 8686   4.195   5.638   2.180 -0.1073 -0.2413 -0.4118
    5MOL     F5 8687   4.276   5.595   2.379 -0.7481 -0.7255  0.0137
    5MOL     F6 8688   4.206   5.451   2.256 -0.0791  0.2173  0.3917
    5MOL     O2 8689   4.565   5.679   1.672 -0.0783  0.1476 -0.0879
    5MOL    C25 8690   4.541   5.134   2.498 -0.6029  0.4869 -0.5440
    5MOL     N4 8691   4.650   5.056   2.487  0.5466  0.0950 -1.4808
    5MOL    C26 8692   4.730   5.090   2.382  0.2354 -0.1298  0.5685
    5MOL     O3 8693   4.838   5.039   2.355 -0.4832  0.6320  0.6741
    5MOL    C27 8694   4.806   5.542   1.040  0.3369  0.3834 -0.2405
    5MOL    C28 8695   4.840   5.415   1.085  0.0175  0.6000  0.6662
    5MOL    C29 8696   4.895   5.646   1.058  0.0088 -0.1466 -0.5909
    5MOL    C30 8697   4.967   5.390   1.127  0.4488 -0.5990 -0.7786
    5MOL    C31 8698   5.027   5.625   1.097 -0.3256 -0.1511  0.2890
    5MOL    C32 8699   5.060   5.495   1.137 -0.7737 -0.2194 -0.1119
    5MOL    C33 8700   5.195   5.471   1.142 -0.5080  0.0729 -0.0602
    5MOL     N5 8701   5.253   5.386   1.040  0.1361  0.2696  0.2697
    5MOL     N6 8702   5.301   5.534   1.215 -0.7077 -0.0245 -0.2885
    5MOL    C34 8703   5.385   5.382   1.079  0.2647  0.5760 -0.1989
    5MOL    C35 8704   5.418   5.475   1.169  0.2852 -0.1952  0.6838
    5MOL    C36 8705   5.292   5.548   1.364 -0.6030  0.2939  0.0873
    5MOL     H1 8706   5.359   5.622   1.399 -2.7817 -1.7983  0.9014
    5MOL     H2 8707   5.306   5.451   1.407 -0.1174  1.0272 -1.0892
    5MOL     H3 8708   5.186   5.576   1.391  1.3424  0.5653 -0.6756
    5MOL    C37 8709   5.191   5.325   0.926  0.1345  0.1972  0.2149
    5MOL    C38 8710   5.105   5.402   0.840 -0.1883 -0.7660  0.2242
    5MOL    C39 8711   5.041   5.339   0.730 -0.2135 -0.8422 -0.0377
    5MOL    C40 8712   5.083   5.215   0.688  0.0387  0.4230 -0.6190
    5MOL    C41 8713   5.167   5.137   0.771 -0.2733  0.0243  0.6411
    5MOL    C42 8714   5.212   5.189   0.894  0.0835  0.8087 -0.4956
    5MOL    C43 8715   5.555   5.496   1.234 -0.0618 -1.0193  0.8413
    5MOL     F7 8716   5.585   5.629   1.263  0.3786 -0.2881 -0.1339
    5MOL     F8 8717   5.645   5.440   1.148 -0.1141  0.4702 -0.0363
    5MOL     F9 8718   5.550   5.431   1.351  0.5377 -0.7137 -0.6049
    5MOL    C44 8719   4.479   5.663   0.967  0.1207  0.1185  0.3540
    5MOL    C45 8720   4.508   5.603   0.850  0.5884 -0.2496  0.1335
    5MOL    C46 8721   4.427   5.594   0.721  0.6326  0.2241 -0.1563
    5MOL    F10 8722   4.307   5.526   0.740  0.5405  0.6224 -0.2559
    5MOL    F11 8723   4.396   5.722   0.684  0.0839 -0.2959  0.1546
    5MOL     H4 8724   4.399   5.735   0.984 -1.0455 -1.8726 -0.6618
    5MOL     H5 8725   4.703   5.478   1.237  0.5583 -0.4844 -0.9356
    5MOL     H6 8726   4.636   5.421   1.458  0.0211 -0.2296 -1.4438
    5MOL     H7 8727   4.360   5.742   1.194  0.3721  0.0226 -2.0482
    5MOL     H8 8728   4.303   5.711   1.430 -0.5996 -0.8072 -0.6659
    5MOL     H9 8729   4.518   5.653   1.957  1.0993  1.0149  1.8697
    5MOL    H10 8730   4.280   5.311   2.093  0.5902 -0.5413  1.0876
    5MOL    H11 8731   4.242   5.255   1.853 -2.3508  0.4377  0.0235
    5MOL    H12 8732   4.654   5.456   2.091  2.0435 -0.2404 -1.3455
    5MOL    H13 8733   4.375   5.367   2.415 -0.3290 -2.0247  0.3081
    5MOL    H14 8734   4.796   5.261   2.169  0.7679 -2.1501  1.1735
    5MOL     O4 8735   4.450   5.117   2.577  0.3885  0.2768  0.1817
    5MOL    H15 8736   4.761   5.340   1.073  1.0140 -2.3999  0.9315
    5MOL    H16 8737   4.987   5.288   1.158 -2.7563 -1.8177 -0.5662
    5MOL    H17 8738   4.868   5.752   1.026  1.8293  2.5005 -1.4291
    5MOL    H18 8739   4.963   5.399   0.672 -1.8141 -1.3911  2.4969
    5MOL    H19 8740   5.090   5.510   0.863 -0.7644  0.9848  0.5697
    5MOL    H20 8741   5.196   5.035   0.744  1.4633 -0.0807  0.6981
    5MOL    H21 8742   5.286   5.125   0.949  4.0220 -1.8588  0.3773
    5MOL    H22 8743   5.457   5.318   1.025  1.6013 -3.8753  0.1544
    5MOL    H23 8744   5.095   5.703   1.094 -1.6937 -1.2371 -0.3464
    5MOL    F12 8745   4.487   5.525   0.616 -0.3028  0.4246 -0.0062
    5MOL    C47 8746   4.665   5.403   0.805  0.0856  0.4156 -0.6280
    5MOL    H24 8747   4.701   5.404   0.703 -0.1711  1.9039  1.1342
    5MOL    H25 8748   4.576   5.334   0.811 -1.3340  1.9407 -0.2540
    5MOL    H26 8749   4.743   5.363   0.865 -0.8730  2.5348  1.7210
    5MOL     N1 8750   5.446   5.022   2.594 -0.0006  0.1917 -0.0152
    5MOL     N2 8751   5.566   4.870   2.724  0.0471  0.3806  0.2937
    5MOL     C1 8752   5.437   4.934   2.703  0.2983 -0.2067  0.0291
    5MOL     C2 8753   5.569   4.741   2.766 -0.1169  0.4805 -0.3664
    5MOL     C3 8754   5.522   4.708   2.897 -0.2209 -0.3824  0.1745
    5MOL     C4 8755   5.504   4.569   2.934  0.0976  0.5077  0.1728
    5MOL     C5 8756   5.521   4.469   2.837  0.3602  0.4473  0.4219
    5MOL     C6 8757   5.568   4.502   2.706 -0.5139  0.1150  0.1732
    5MOL     C7 8758   5.596   4.637   2.677  0.4130  0.0070  0.4773
    5MOL     N3 8759   5.474   4.339   2.862  0.1972  0.1895 -0.2757
    5MOL     C8 8760   5.342   4.316   2.834 -0.4995 -0.8444 -0.1899
    5MOL     C9 8761   5.339   4.174   2.798  0.4485  0.6024  0.1502
    5MOL    C10 8762   5.468   4.122   2.804 -0.3732  0.3224  0.0818
    5MOL    C11 8763   5.549   4.224   2.855  0.2529 -0.7662 -0.2355
    5MOL     O1 8764   5.662   4.210   2.899 -0.7900 -0.4679  0.3090
    5MOL    C12 8765   5.237   4.099   2.733  0.7669  0.1460 -0.5086
    5MOL    C13 8766   5.267   3.970   2.669 -0.1501  0.1823 -0.1915
    5MOL    C14 8767   5.405   3.924   2.683  0.4964 -0.7261  0.0904
    5MOL    C15 8768   5.501   3.999   2.753 -0.4478 -0.3484  0.7285
    5MOL    C16 8769   5.126   3.979   2.456 -0.0757  0.2667 -0.5078
    5MOL    C17 8770   5.172   4.112   2.430  0.4689 -0.2062 -0.1959
    5MOL    C18 8771   5.131   4.178   2.317  0.3169 -0.0678 -0.5402
    5MOL    C19 8772   5.044   3.913   2.353  0.9243 -1.0155 -0.1645
    5MOL    C20 8773   5.065   4.112   2.217  0.0304  0.4382  0.0430
    5MOL    C21 8774   5.016   3.982   2.230 -1.1886 -0.3234 -1.0466
    5MOL    C22 8775   5.161   3.898   2.589  0.3099  0.0992  0.5015
    5MOL    C23 8776   5.214   3.749   2.551  1.5362 -0.3358 -0.6071
    5MOL     F1 8777   5.124   3.664   2.494 -0.0115  0.8565 -0.2718
    5MOL     F2 8778   5.270   3.689   2.656  0.7830  0.3143  0.0789
    5MOL     F3 8779   5.315   3.752   2.462  0.1293 -0.4503  0.3730
    5MOL    C24 8780   5.024   3.879   2.658 -0.5899 -0.0326  0.2916
    5MOL     F4 8781   5.045   3.842   2.789 -0.1853 -0.3617  0.3964
    5MOL     F5 8782   4.933   3.797   2.603  0.1083 -0.1053 -0.0974
    5MOL     F6 8783   4.958   4.003   2.668 -0.1370  0.0583  0.0489
    5MOL     O2 8784   5.246   4.390   2.837 -0.4384  0.1302 -0.2069
    5MOL    C25 8785   5.163   4.312   2.270 -0.1680 -0.3089  0.0582
    5MOL     N4 8786   5.102   4.322   2.147  0.3957 -0.5280  0.3367
    5MOL    C26 8787   5.049   4.202   2.106  0.6889  0.1867 -0.4047
    5MOL     O3 8788   5.007   4.189   1.998 -0.0586  0.0395  0.9541
    5MOL    C27 8789   5.325   4.897   2.772  0.9242 -0.5290  0.0020
    5MOL    C28 8790   5.266   4.975   2.869 -0.2536 -0.5470  0.3638
    5MOL    C29 8791   5.268   4.771   2.753 -0.2465  0.4691 -0.1775
    5MOL    C30 8792   5.153   4.931   2.943 -0.6618  0.2217 -0.2538
    5MOL    C31 8793   5.156   4.727   2.820 -1.0986  0.5449 -0.9691
    5MOL    C32 8794   5.100   4.808   2.917  0.8462  0.2403 -0.2860
    5MOL    C33 8795   4.988   4.764   2.985  0.3876 -0.5102  0.3400
    5MOL     N5 8796   4.858   4.762   2.927 -0.5938  0.5317  0.4080
    5MOL     N6 8797   4.984   4.705   3.119 -0.4586 -0.3055  0.6489
    5MOL    C34 8798   4.779   4.708   3.022 -1.0690  0.7002  0.0760
    5MOL    C35 8799   4.849   4.677   3.138  0.4574 -0.0867  0.3507
    5MOL    C36 8800   5.085   4.600   3.149  1.0969  0.4925  0.2360
    5MOL     H1 8801   5.168   4.631   3.214  0.8854 -2.2048  0.0359
    5MOL     H2 8802   5.119   4.555   3.053 -2.1312 -0.1067  0.9208
    5MOL     H3 8803   5.037   4.517   3.204  0.7079 -2.0899  1.7439
    5MOL    C37 8804   4.809   4.840   2.819 -0.3757 -0.1578 -0.8614
    5MOL    C38 8805   4.783   4.979   2.822  0.5742  0.7361 -1.0013
    5MOL    C39 8806   4.723   5.037   2.710 -0.5580  0.1924 -0.3901
    5MOL    C40 8807   4.702   4.979   2.591 -0.4857  0.0921 -0.5399
    5MOL    C41 8808   4.725   4.837   2.579 -0.5896  0.0898  0.0024
    5MOL    C42 8809   4.772   4.771   2.698  0.3961  0.0780 -0.1300
    5MOL    C43 8810   4.788   4.614   3.266  0.3670 -0.0130  0.1900
    5MOL     F7 8811   4.661   4.650   3.290 -0.3635 -0.0560  1.0006
    5MOL     F8 8812   4.856   4.650   3.375  0.1000  0.4270 -0.2258
    5MOL     F9 8813   4.802   4.479   3.264  0.1523  0.1434 -0.5922
    5MOL    C44 8814   5.639   4.915   2.616 -0.8288 -1.0786  0.1889
    5MOL    C45 8815   5.578   5.004   2.544 -0.0956  0.2736  0.3195
    5MOL    C46 8816   5.633   5.071   2.419  0.1682  0.1832  0.3243
    5MOL    F10 8817   5.546   5.150   2.355 -0.0425 -0.3224  0.0337
    5MOL    F11 8818   5.737   5.153   2.447  0.1384 -0.5801 -0.2773
    5MOL     H4 8819   5.740   4.880   2.615  0.4430  2.4388 -0.1706
    5MOL     H5 8820   5.485   4.790   2.965 -2.7286  2.3103 -0.9620
    5MOL     H6 8821   5.455   4.542   3.023  1.1237  1.7030  0.2821
    5MOL     H7 8822   5.623   4.662   2.574 -2.3003 -2.6537  1.5760
    5MOL     H8 8823   5.583   4.422   2.633  1.0487  0.4982 -1.8203
    5MOL     H9 8824   5.139   4.148   2.722  1.6134 -0.9817  0.4122
    5MOL    H10 8825   5.448   3.839   2.636  0.4784 -0.3816  1.5969
    5MOL    H11 8826   5.602   3.968   2.744  2.0903  0.7318  0.1573
    5MOL    H12 8827   5.012   3.812   2.367  2.1688  0.3977 -0.5428
    5MOL    H13 8828   5.221   4.168   2.504 -0.2692  2.2157 -2.2855
    5MOL    H14 8829   4.960   3.940   2.149 -0.2504  1.2699  1.7906
    5MOL     O4 8830   5.235   4.401   2.317 -0.6158  0.0737 -0.1965
    5MOL    H15 8831   5.310   5.073   2.884  1.6247 -1.2754 -0.5882
    5MOL    H16 8832   5.107   4.989   3.021  1.7940 -2.3502  1.7928
    5MOL    H17 8833   5.300   4.699   2.678  0.8314 -0.4164 -0.5138
    5MOL    H18 8834   4.703   5.144   2.723 -1.0563 -1.5165 -0.2065
    5MOL    H19 8835   4.786   5.041   2.910  0.8346 -0.3055 -2.2222
    5MOL    H20 8836   4.700   4.780   2.487 -0.4519  0.1109 -0.3298
    5MOL    H21 8837   4.795   4.669   2.694 -1.6309  1.6178  1.5769
    5MOL    H22 8838   4.675   4.698   2.997 -2.3133 -0.8407  0.6124
    5MOL    H23 8839   5.117   4.629   2.802  1.1997  0.7804 -1.1377
    5MOL    F12 8840   5.664   4.970   2.332 -0.0109  0.2985  1.2164
    5MOL    C47 8841   5.370   5.144   2.594 -0.2793 -0.4584  0.0693
    5MOL    H24 8842   5.272   5.129   2.543 -0.6496 -0.5280 -1.0439
    5MOL    H25 8843   5.427   5.217   2.536 -0.2890 -0.7512 -1.8862
    5MOL    H26 8844   5.360   5.168   2.700  0.8492 -0.2358  1.8859
    5MOL     N1 8845   5.617   5.058   1.946  0.3203 -0.2562  0.2894
    5MOL     N2 8846   5.660   5.110   1.719  0.7191 -0.5302  0.1982
    5MOL     C1 8847   5.560   5.059   1.812  0.1725  0.5190 -0.1884
    5MOL     C2 8848   5.683   5.084   1.585 -0.1378 -0.6909 -0.0085
    5MOL     C3 8849   5.658   4.952   1.536 -0.0251 -0.4728  0.0743
    5MOL     C4 8850   5.673   4.920   1.402 -0.2536  0.2840  0.5797
    5MOL     C5 8851   5.706   5.018   1.311 -1.1605 -0.5306 -0.2440
    5MOL     C6 8852   5.720   5.152   1.350  1.0062 -0.4682 -0.4201
    5MOL     C7 8853   5.715   5.185   1.487  0.0025  0.6482 -0.1041
    5MOL     N3 8854   5.723   4.978   1.175 -0.2632  0.2762  0.3086
    5MOL     C8 8855   5.634   5.023   1.077  0.0696  0.0211 -0.4519
    5MOL     C9 8856   5.664   4.942   0.963  0.2871 -0.8381  0.6358
    5MOL    C10 8857   5.772   4.854   0.994  0.0162 -0.3791 -0.4696
    5MOL    C11 8858   5.815   4.882   1.131  0.9898  0.1489 -0.0652
    5MOL     O1 8859   5.899   4.829   1.196  0.4194 -0.3116  0.1087
    5MOL    C12 8860   5.587   4.927   0.844 -0.1889 -0.5194  0.3140
    5MOL    C13 8861   5.619   4.814   0.762  0.2446 -0.4380 -0.1061
    5MOL    C14 8862   5.732   4.736   0.794 -0.1955  1.0691  0.9203
    5MOL    C15 8863   5.811   4.748   0.909 -0.1694 -0.8348  0.0641
    5MOL    C16 8864   5.384   4.733   0.726  0.2170 -0.3664  0.4198
    5MOL    C17 8865   5.261   4.781   0.692  0.1106  0.3621  0.9439
    5MOL    C18 8866   5.155   4.787   0.783  0.5399  0.2392 -0.6826
    5MOL    C19 8867   5.395   4.663   0.848 -0.2597 -0.1940 -0.1351
    5MOL    C20 8868   5.183   4.756   0.914 -0.9240  0.2621 -0.3193
    5MOL    C21 8869   5.295   4.682   0.950 -0.2453 -0.0867 -0.4437
    5MOL    C22 8870   5.514   4.776   0.647 -0.6225  0.1310  0.3171
    5MOL    C23 8871   5.500   4.904   0.556 -0.3082 -0.4226 -0.6838
    5MOL     F1 8872   5.625   4.937   0.535  0.8323  0.7838 -0.3813
    5MOL     F2 8873   5.424   5.004   0.609  0.4725 -0.0272  0.5089
    5MOL     F3 8874   5.442   4.884   0.436 -0.3964  0.5825 -0.1371
    5MOL    C24 8875   5.564   4.655   0.560  0.5344  0.3378  0.6508
    5MOL     F4 8876   5.475   4.643   0.457 -0.0761  0.1322  0.5445
    5MOL     F5 8877   5.566   4.539   0.627  0.2144  0.4753 -0.0820
    5MOL     F6 8878   5.686   4.669   0.512 -0.3294 -0.5826 -0.0391
    5MOL     O2 8879   5.555   5.114   1.077  0.3987  0.3445 -0.0614
    5MOL    C25 8880   5.009   4.847   0.781  0.0819  0.7899 -0.0129
    5MOL     N4 8881   4.974   4.862   0.912 -0.1973  0.2163  0.0714
    5MOL    C26 8882   5.061   4.790   0.994  0.0255  0.3491 -0.6414
    5MOL     O3 8883   5.041   4.775   1.110 -0.1810  0.3372  0.1977
    5MOL    C27 8884   5.447   4.990   1.774 -0.1614 -0.1840  0.7179
    5MOL    C28 8885   5.449   4.852   1.737  0.0911 -0.1981 -0.0071
    5MOL    C29 8886   5.328   5.061   1.748 -0.3094  0.0497 -0.5421
    5MOL    C30 8887   5.332   4.786   1.695 -0.6166 -0.2691  0.5606
    5MOL    C31 8888   5.212   4.992   1.709  0.5413 -0.0838  0.0048
    5MOL    C32 8889   5.212   4.851   1.685 -0.0911  0.3213  0.2312
    5MOL    C33 8890   5.095   4.783   1.648 -0.0010  0.4882  0.2847
    5MOL     N5 8891   5.028   4.680   1.731 -0.6340  0.0016  0.3733
    5MOL     N6 8892   5.014   4.808   1.534  0.1882  0.6127  0.5248
    5MOL    C34 8893   4.950   4.619   1.635 -0.6891  0.1923 -0.0577
    5MOL    C35 8894   4.951   4.680   1.520  0.2754  0.0580 -0.3877
    5MOL    C36 8895   5.071   4.889   1.425 -0.2102 -0.7225 -0.1975
    5MOL     H1 8896   5.034   4.860   1.329 -0.1060  3.0157 -1.7576
    5MOL     H2 8897   5.177   4.884   1.440 -1.0753 -1.4718 -1.0027
    5MOL     H3 8898   5.032   4.995   1.433 -0.2776 -1.2328  2.3870
    5MOL    C37 8899   5.069   4.608   1.843 -0.5874  0.3526 -0.0947
    5MOL    C38 8900   5.162   4.505   1.834 -0.4168  0.2619 -0.8641
    5MOL    C39 8901   5.185   4.422   1.942 -0.4035 -0.5158  0.7580
    5MOL    C40 8902   5.115   4.433   2.062 -0.0224 -0.1937  0.3431
    5MOL    C41 8903   5.026   4.540   2.075  0.1344 -0.0012 -0.6516
    5MOL    C42 8904   5.004   4.632   1.971 -0.2798 -0.2522  0.3295
    5MOL    C43 8905   4.889   4.621   1.394  0.0764  0.5969  0.5972
    5MOL     F7 8906   4.790   4.685   1.335 -0.1671  0.4253  0.2121
    5MOL     F8 8907   4.844   4.495   1.430 -0.2609 -0.4320 -0.0338
    5MOL     F9 8908   4.988   4.599   1.304  0.5973 -0.1391  0.1208
    5MOL    C44 8909   5.767   5.150   1.802 -0.0091 -0.4925 -0.3000
    5MOL    C45 8910   5.752   5.106   1.928  0.0256 -0.4665 -0.8414
    5MOL    C46 8911   5.858   5.108   2.037 -0.7982 -0.5629 -0.1769
    5MOL    F10 8912   5.977   5.163   1.999  0.1084 -0.0465 -0.2176
    5MOL    F11 8913   5.808   5.179   2.142  0.3780 -0.1690 -0.7105
    5MOL     H4 8914   5.855   5.189   1.758 -2.6273  1.3539  0.0786
    5MOL     H5 8915   5.642   4.869   1.603 -0.6208 -0.1180  2.5015
    5MOL     H6 8916   5.649   4.812   1.371  1.1421 -1.3962  1.9130
    5MOL     H7 8917   5.721   5.293   1.512 -0.6891  0.7474  1.6079
    5MOL     H8 8918   5.739   5.230   1.278 -3.0715 -1.5452 -0.1076
    5MOL     H9 8919   5.505   4.989   0.825  0.9925 -2.1765  1.0609
    5MOL    H10 8920   5.753   4.650   0.737  0.1675  0.0607  0.8384
    5MOL    H11 8921   5.885   4.678   0.946 -0.4886 -0.0963 -0.2675
    5MOL    H12 8922   5.488   4.613   0.872  1.2124 -0.8039  0.3945
    5MOL    H13 8923   5.245   4.829   0.595 -0.9831  0.9466 -0.4018
    5MOL    H14 8924   5.309   4.637   1.052  2.3288 -0.0706 -0.3580
    5MOL     O4 8925   4.954   4.888   0.683  0.3524  0.4078 -0.0129
    5MOL    H15 8926   5.535   4.794   1.752 -0.2653 -1.0281  4.2505
    5MOL    H16 8927   5.342   4.679   1.670  0.4629  1.2129  1.2602
    5MOL    H17 8928   5.330   5.174   1.769  0.6909 -0.4425  0.0352
    5MOL    H18 8929   5.254   4.340   1.938 -2.6712  0.4827  4.0518
    5MOL    H19 8930   5.224   4.468   1.745 -0.7498  0.8527  0.1200
    5MOL    H20 8931   4.956   4.544   2.158 -2.0542 -2.1252  0.3744
    5MOL    H21 8932   4.924   4.712   1.978 -1.5093 -0.1613 -1.0380
    5MOL    H22 8933   4.920   4.521   1.658  1.7940  5.9226 -1.8520
    5MOL    H23 8934   5.126   5.055   1.703  2.2767 -0.1313  1.4840
    5MOL    F12 8935   5.884   4.981   2.076  0.1996 -0.1265  0.5808
    5MOL    C47 8936   5.538   5.094   2.057 -0.1020  0.2685  0.4888
    5MOL    H24 8937   5.551   5.195   2.087  0.8683 -1.3127  0.4604
    5MOL    H25 8938   5.567   5.031   2.146  1.6944  2.3692  0.7060
    5MOL    H26 8939   5.436   5.072   2.036  2.0160 -2.6233  1.6063
    5MOL     N1 8940   4.643   4.525   1.082  0.5157 -0.1238 -0.4906
    5MOL     N2 8941   4.582   4.428   1.281  0.6202  0.9775  0.1922
    5MOL     C1 8942   4.550   4.532   1.190 -0.3605 -1.1317  0.1802
    5MOL     C2 8943   4.486   4.373   1.364  0.2665 -0.3635 -0.8058
    5MOL     C3 8944   4.420   4.465   1.447 -0.3671  0.4745  0.1949
    5MOL     C4 8945   4.318   4.420   1.526  0.0508 -0.4089  0.6909
    5MOL     C5 8946   4.274   4.290   1.518  0.1874  0.8669 -0.4171
    5MOL     C6 8947   4.336   4.194   1.428 -0.1339 -0.0652  0.1720
    5MOL     C7 8948   4.439   4.244   1.347  0.2843  1.0181 -0.1407
    5MOL     N3 8949   4.164   4.248   1.593  0.5504 -0.1606 -0.0915
    5MOL     C8 8950   4.182   4.168   1.704  0.0313  0.3723 -0.2369
    5MOL     C9 8951   4.051   4.109   1.741  0.2434  0.1113 -0.5266
    5MOL    C10 8952   3.961   4.163   1.648  0.1419 -0.7719  0.1440
    5MOL    C11 8953   4.032   4.254   1.555 -0.0687  0.3239  0.1336
    5MOL     O1 8954   3.995   4.326   1.460  0.0583  0.6184  0.2090
    5MOL    C12 8955   4.015   4.012   1.839 -0.1102  0.5190  0.0262
    5MOL    C13 8956   3.880   3.967   1.843  0.4080 -0.2264 -0.1366
    5MOL    C14 8957   3.791   4.021   1.750  0.3119 -0.2375  0.0493
    5MOL    C15 8958   3.825   4.128   1.659 -0.2549  0.5396  0.3937
    5MOL    C16 8959   3.897   3.901   2.096  0.1619  0.0160 -0.3426
    5MOL    C17 8960   3.895   4.040   2.128 -0.2061  0.0409  0.9712
    5MOL    C18 8961   3.980   4.082   2.231  0.4735 -0.5909  0.1302
    5MOL    C19 8962   3.964   3.808   2.189 -0.1784  0.0457  0.1728
    5MOL    C20 8963   4.041   3.996   2.322  0.5424 -0.2485  0.0009
    5MOL    C21 8964   4.032   3.856   2.302  0.0889 -0.5543  0.1167
    5MOL    C22 8965   3.838   3.863   1.951 -0.2256 -0.5213 -0.4225
    5MOL    C23 8966   3.684   3.839   1.965 -0.3644  0.0343 -0.3995
    5MOL     F1 8967   3.659   3.764   2.071  0.1025  0.0810  0.0564
    5MOL     F2 8968   3.630   3.771   1.862  0.0697 -0.6889  0.3137
    5MOL     F3 8969   3.614   3.956   1.979 -0.0758  0.1159 -0.1109
    5MOL    C24 8970   3.910   3.734   1.897  0.0083  0.0615  0.5514
    5MOL     F4 8971   4.046   3.737   1.908 -0.3337  0.3436 -0.0038
    5MOL     F5 8972   3.880   3.716   1.765  0.0777 -0.3355 -0.4651
    5MOL     F6 8973   3.866   3.624   1.959 -0.1494 -0.5353 -0.2236
    5MOL     O2 8974   4.290   4.143   1.764 -0.5552 -0.3996  0.1108
    5MOL    C25 8975   3.994   4.221   2.287  0.5690  1.3961 -0.3983
    5MOL     N4 8976   4.066   4.208   2.405 -0.3723  0.7905 -0.2246
    5MOL    C26 8977   4.096   4.078   2.431  0.2638  0.2268  0.5127
    5MOL     O3 8978   4.141   4.035   2.533 -0.0367  0.1685  0.0289
    5MOL    C27 8979   4.472   4.647   1.211 -0.2780  0.5910  0.3118
    5MOL    C28 8980   4.509   4.731   1.315  0.5601  0.5084 -0.2244
    5MOL    C29 8981   4.389   4.696   1.113 -0.8164  0.2699 -0.1612
    5MOL    C30 8982   4.476   4.870   1.320  0.9042 -0.2089  0.9440
    5MOL    C31 8983   4.373   4.838   1.104 -0.0152 -0.0147 -0.0557
    5MOL    C32 8984   4.428   4.922   1.206  0.1848 -0.1223  0.6054
    5MOL    C33 8985   4.433   5.059   1.177  0.2317 -0.2064 -0.5088
    5MOL     N5 8986   4.522   5.129   1.087 -1.1096  0.3219 -0.0971
    5MOL     N6 8987   4.322   5.147   1.202  0.0677  0.6171 -0.5301
    5MOL    C34 8988   4.466   5.255   1.075  0.5281 -1.0027 -0.6410
    5MOL    C35 8989   4.350   5.263   1.137 -0.1277  0.2902 -0.2968
    5MOL    C36 8990   4.230   5.130   1.316  0.1297 -0.1190  0.3153
    5MOL     H1 8991   4.205   5.223   1.378  2.2033  1.5422  0.8717
    5MOL     H2 8992   4.270   5.064   1.398 -1.6101 -1.0548 -1.0375
    5MOL     H3 8993   4.136   5.076   1.280  0.3897  0.8390  0.6521
    5MOL    C37 8994   4.634   5.080   1.032  0.1313  0.4281 -0.2376
    5MOL    C38 8995   4.759   5.105   1.101 -0.0502  0.7282  0.0691
    5MOL    C39 8996   4.874   5.030   1.059 -0.0940  0.3508 -0.9620
    5MOL    C40 8997   4.862   4.942   0.950 -0.2054 -0.2963  0.7211
    5MOL    C41 8998   4.740   4.934   0.875  0.5986  0.1351  0.1345
    5MOL    C42 8999   4.624   4.994   0.925 -0.2199  0.1792  0.3769
    5MOL    C43 9000   4.259   5.380   1.131  0.3773 -0.6069  0.3916
    5MOL     F7 9001   4.128   5.356   1.105  0.2404  0.0778 -0.0140
    5MOL     F8 9002   4.301   5.473   1.045  0.6642  0.5398  0.1297
    5MOL     F9 9003   4.267   5.442   1.249  0.1488  0.6800 -0.0562
    5MOL    C44 9004   4.693   4.371   1.227 -0.0237 -0.0532  0.1851
    5MOL    C45 9005   4.736   4.424   1.116  0.2208  0.3263  0.8731
    5MOL    C46 9006   4.851   4.378   1.037 -0.7161  0.0524  0.2345
    5MOL    F10 9007   4.963   4.369   1.120  0.2109  0.4686 -0.2014
    5MOL    F11 9008   4.816   4.261   0.984  0.0271  0.1564 -1.0058
    5MOL     H4 9009   4.733   4.291   1.286  2.2100 -0.4134  0.5744
    5MOL     H5 9010   4.456   4.563   1.456 -0.2799  1.2179  0.2534
    5MOL     H6 9011   4.272   4.489   1.593 -0.1150  2.3697 -3.1770
    5MOL     H7 9012   4.497   4.183   1.285  1.2148 -0.5553  0.4981
    5MOL     H8 9013   4.308   4.089   1.436 -1.3717 -0.2739  3.3760
    5MOL     H9 9014   4.098   3.981   1.904  0.1244 -0.0040 -1.1758
    5MOL    H10 9015   3.692   3.994   1.773  0.9377 -0.9140  1.2425
    5MOL    H11 9016   3.743   4.186   1.604  0.9531  0.7299 -0.8530
    5MOL    H12 9017   3.952   3.700   2.177 -0.7346 -3.4359  2.2568
    5MOL    H13 9018   3.847   4.114   2.071 -1.7136 -0.3436 -0.8402
    5MOL    H14 9019   4.074   3.796   2.384  0.7533  0.1983  1.2467
    5MOL     O4 9020   3.941   4.320   2.250 -0.5418 -0.2941 -0.3857
    5MOL    H15 9021   4.573   4.691   1.391  1.5216 -0.1508  0.1617
    5MOL    H16 9022   4.510   4.928   1.405 -0.0600  1.5114 -0.0449
    5MOL    H17 9023   4.361   4.644   1.029 -0.7247  0.6114  4.3923
    5MOL    H18 9024   4.972   5.041   1.105 -1.0800  0.2052 -2.0596
    5MOL    H19 9025   4.751   5.175   1.183 -1.5126 -0.5410 -5.3241
    5MOL    H20 9026   4.720   4.862   0.793  0.0747  1.3898 -1.2742
    5MOL    H21 9027   4.533   4.976   0.878 -1.8266  1.9652 -0.8507
    5MOL    H22 9028   4.518   5.327   1.019  1.1038 -0.7878 -0.8349
    5MOL    H23 9029   4.329   4.879   1.013 -0.9392 -0.9661 -0.8206
    5MOL    F12 9030   4.889   4.477   0.946  0.2376 -0.0740 -0.2278
    5MOL    C47 9031   4.697   4.649   1.031 -0.1344  0.5086  0.5774
    5MOL    H24 9032   4.698   4.642   0.917  0.5759 -4.0635  0.5807
    5MOL    H25 9033   4.799   4.671   1.070 -2.7023 -1.4706 -1.1542
    5MOL    H26 9034   4.622   4.725   1.043  2.2824 -0.2345 -4.2959
    5MOL     N1 9035   4.119   3.892   2.817 -0.2534 -0.2240  0.3319
    5MOL     N2 9036   4.326   3.868   2.918  0.1518 -0.5615 -0.7151
    5MOL     C1 9037   4.236   3.963   2.860  0.1388  0.3299  0.1241
    5MOL     C2 9038   4.446   3.894   2.980  0.1226 -0.1647  0.5146
    5MOL     C3 9039   4.539   3.981   2.917 -0.2637  0.5860 -0.3718
    5MOL     C4 9040   4.667   3.994   2.972 -0.2136  0.9987 -0.4633
    5MOL     C5 9041   4.703   3.931   3.097  0.6598 -0.3020 -0.3704
    5MOL     C6 9042   4.622   3.836   3.147  0.2177  0.6224  0.0623
    5MOL     C7 9043   4.493   3.814   3.084 -0.1271  0.3931  0.2864
    5MOL     N3 9044   4.838   3.919   3.139  0.1280  0.2219  0.0961
    5MOL     C8 9045   4.925   3.827   3.082 -0.2911  0.1816  0.5403
    5MOL     C9 9046   5.056   3.865   3.141  0.5039 -0.1142 -0.8299
    5MOL    C10 9047   5.044   3.968   3.231  0.1310 -0.4268  0.2348
    5MOL    C11 9048   4.901   4.005   3.227 -0.3358 -1.0360 -0.1279
    5MOL     O1 9049   4.844   4.096   3.288  0.0411 -0.9798 -0.4562
    5MOL    C12 9050   5.180   3.806   3.117  0.3578  0.0657 -0.2488
    5MOL    C13 9051   5.295   3.859   3.182  0.1586 -0.3673 -0.6563
    5MOL    C14 9052   5.281   3.972   3.264 -0.0337 -0.2629 -0.0059
    5MOL    C15 9053   5.154   4.023   3.288 -0.6901  0.5973  0.4206
    5MOL    C16 9054   5.457   3.744   3.326 -0.4512 -0.6398 -0.5650
    5MOL    C17 9055   5.347   3.711   3.404 -0.2074 -0.2777  0.5219
    5MOL    C18 9056   5.358   3.695   3.541 -0.3737 -0.0316  0.6434
    5MOL    C19 9057   5.582   3.739   3.391  0.5938  0.7952 -0.1857
    5MOL    C20 9058   5.481   3.715   3.604  0.0108  0.3977  0.3602
    5MOL    C21 9059   5.598   3.715   3.527  0.5376 -0.0796  0.1386
    5MOL    C22 9060   5.435   3.794   3.181  0.8473  0.1852  0.1500
    5MOL    C23 9061   5.438   3.659   3.092 -0.4501 -0.7455  0.5213
    5MOL     F1 9062   5.426   3.687   2.958  0.0385  0.5440 -0.3634
    5MOL     F2 9063   5.348   3.565   3.132  0.1881  0.4876 -0.4702
    5MOL     F3 9064   5.556   3.602   3.103  0.0506  0.0282 -0.1375
    5MOL    C24 9065   5.543   3.893   3.126 -0.4636  0.3512 -0.7484
    5MOL     F4 9066   5.653   3.834   3.073  0.1507  0.2984 -0.4428
    5MOL     F5 9067   5.591   3.966   3.230 -0.8018 -0.5746  0.2932
    5MOL     F6 9068   5.498   3.988   3.042 -0.9313 -0.0582  0.1872
    5MOL     O2 9069   4.898   3.738   3.004 -0.3563 -0.4448  0.6144
    5MOL    C25 9070   5.253   3.710   3.645 -0.3706  0.3049  0.4254
    5MOL     N4 9071   5.319   3.740   3.763 -0.7476 -0.0510 -0.0009
    5MOL    C26 9072   5.454   3.731   3.748 -0.3650 -0.0533  0.0307
    5MOL     O3 9073   5.533   3.749   3.842 -0.5698 -0.3948  0.4728
    5MOL    C27 9074   4.251   4.102   2.859  0.5812  0.6020  0.3704
    5MOL    C28 9075   4.311   4.169   2.750 -0.1007  0.6356 -0.0392
    5MOL    C29 9076   4.222   4.167   2.977 -0.2506  0.0658 -0.6696
    5MOL    C30 9077   4.354   4.297   2.770  0.3521 -0.3808  0.4777
    5MOL    C31 9078   4.262   4.306   2.993  0.2399 -0.2863  0.3095
    5MOL    C32 9079   4.326   4.372   2.884  0.2737 -0.2385 -1.0866
    5MOL    C33 9080   4.339   4.507   2.871  0.0520  0.3202 -0.0603
    5MOL     N5 9081   4.273   4.577   2.767  0.3805 -0.2742  0.9072
    5MOL     N6 9082   4.421   4.602   2.939 -0.1998 -0.3579 -0.1682
    5MOL    C34 9083   4.289   4.714   2.795  0.6496  0.0364  0.0284
    5MOL    C35 9084   4.375   4.728   2.893 -0.2371  0.5123 -0.4425
    5MOL    C36 9085   4.462   4.577   3.080 -0.7013 -0.6499  0.2159
    5MOL     H1 9086   4.512   4.670   3.129  1.8668  1.4607  1.3367
    5MOL     H2 9087   4.538   4.492   3.078 -1.9983 -0.7092  3.0433
    5MOL     H3 9088   4.372   4.542   3.142 -2.0416 -0.2912 -1.4589
    5MOL    C37 9089   4.198   4.513   2.666  0.0560  0.2850  0.1100
    5MOL    C38 9090   4.090   4.438   2.705  0.4826  1.1978 -0.4596
    5MOL    C39 9091   4.040   4.343   2.611 -0.9714  0.2155  0.7953
    5MOL    C40 9092   4.109   4.320   2.489  0.5554 -0.8983  0.4092
    5MOL    C41 9093   4.211   4.406   2.447 -0.0791 -0.6291 -0.4065
    5MOL    C42 9094   4.253   4.502   2.538 -0.6201  1.1684  0.4174
    5MOL    C43 9095   4.411   4.867   2.944 -0.0753  0.0227 -0.2422
    5MOL     F7 9096   4.377   4.881   3.074  0.1035  0.2153  0.4795
    5MOL     F8 9097   4.339   4.963   2.873  0.4401  0.0054  0.3502
    5MOL     F9 9098   4.538   4.900   2.922 -0.4238 -0.3221 -0.0401
    5MOL    C44 9099   4.261   3.745   2.904  0.3226 -0.2754 -0.4357
    5MOL    C45 9100   4.141   3.756   2.845 -0.3138 -0.0487  0.7572
    5MOL    C46 9101   4.047   3.647   2.796  0.2572  0.8128  0.2281
    5MOL    F10 9102   3.929   3.669   2.858 -0.3253 -0.3427  0.7124
    5MOL    F11 9103   4.027   3.656   2.660  0.5459 -0.3148  0.0446
    5MOL     H4 9104   4.311   3.650   2.935  2.2662 -0.4469 -0.2565
    5MOL     H5 9105   4.506   4.044   2.832  3.0251  5.1509  0.2264
    5MOL     H6 9106   4.732   4.056   2.917 -3.0529  3.0177 -0.0955
    5MOL     H7 9107   4.419   3.751   3.130 -1.2466 -0.3951  0.5988
    5MOL     H8 9108   4.653   3.776   3.227 -1.7557  1.2531 -2.5567
    5MOL     H9 9109   5.176   3.721   3.048 -1.9022  1.5920 -0.4724
    5MOL    H10 9110   5.369   4.020   3.309  0.7437  2.6433 -1.4008
    5MOL    H11 9111   5.142   4.103   3.353 -0.7288 -0.9365 -0.8186
    5MOL    H12 9112   5.675   3.760   3.333  1.0100 -1.4383  1.6231
    5MOL    H13 9113   5.253   3.703   3.359  1.0877  1.3807 -1.9584
    5MOL    H14 9114   5.696   3.736   3.576  1.6442 -1.2677  0.8392
    5MOL     O4 9115   5.135   3.712   3.621  0.2419  0.5292  0.1055
    5MOL    H15 9116   4.351   4.115   2.661 -1.3885  1.6369  2.0672
    5MOL    H16 9117   4.413   4.333   2.686 -0.6119 -1.5704 -0.2516
    5MOL    H17 9118   4.176   4.115   3.066 -0.9349 -0.9032 -0.3568
    5MOL    H18 9119   3.966   4.277   2.644  1.6523  2.3940  1.9671
    5MOL    H19 9120   4.063   4.440   2.806 -1.2103 -0.3058 -0.1278
    5MOL    H20 9121   4.258   4.394   2.345 -0.1925  2.3523 -1.6283
    5MOL    H21 9122   4.335   4.561   2.508  1.9086 -0.5342 -0.8404
    5MOL    H22 9123   4.232   4.789   2.739 -1.1074  1.1017  3.0647
    5MOL    H23 9124   4.234   4.365   3.084 -1.4916  1.1130  0.9022
    5MOL    F12 9125   4.079   3.521   2.835 -0.3835 -0.3335  0.0061
    5MOL    C47 9126   3.983   3.957   2.804 -0.2037  0.5103  0.3982
    5MOL    H24 9127   3.903   3.885   2.805  0.4602  0.8878  0.1493
    5MOL    H25 9128   3.976   4.012   2.712  2.3916 -0.5435 -0.1832
    5MOL    H26 9129   3.967   4.029   2.884 -2.8125  1.5785 -1.1931
    5MOL     N1 9130   4.588   3.570   3.882  0.8765  0.0238 -0.1651
    5MOL     N2 9131   4.420   3.726   3.905  0.4270 -0.0795 -0.1268
    5MOL     C1 9132   4.558   3.703   3.921  0.1321  0.7808 -0.1278
    5MOL     C2 9133   4.350   3.852   3.912 -0.0757  0.3948 -0.3418
    5MOL     C3 9134   4.417   3.967   3.873 -0.2801 -0.5422  0.1994
    5MOL     C4 9135   4.345   4.088   3.859 -0.1521  0.1222 -1.3045
    5MOL     C5 9136   4.213   4.098   3.898 -0.2534  0.7025 -0.0144
    5MOL     C6 9137   4.144   3.985   3.949  0.2729 -0.3608 -0.1831
    5MOL     C7 9138   4.211   3.862   3.944 -0.0916 -0.0671 -0.4639
    5MOL     N3 9139   4.143   4.228   3.892  0.5950 -0.1793  0.4809
    5MOL     C8 9140   4.084   4.289   4.000  0.6477  0.6363  0.3335
    5MOL     C9 9141   4.001   4.397   3.944 -0.1833 -0.0254 -0.1789
    5MOL    C10 9142   4.000   4.387   3.808 -0.0821 -0.2252 -0.1957
    5MOL    C11 9143   4.106   4.288   3.772  0.1784  0.2654  0.3013
    5MOL     O1 9144   4.146   4.257   3.664 -0.0277  0.3394 -0.3018
    5MOL    C12 9145   3.932   4.487   4.018  0.2540  0.0287 -0.2457
    5MOL    C13 9146   3.835   4.568   3.949  0.2938 -0.1121 -0.3729
    5MOL    C14 9147   3.831   4.567   3.808 -0.0853  0.6758 -0.0284
    5MOL    C15 9148   3.915   4.482   3.734  0.8604 -0.2845  0.0809
    5MOL    C16 9149   3.818   4.806   4.045  0.3101 -0.0353 -0.4393
    5MOL    C17 9150   3.943   4.828   3.984  0.1377  0.4563  0.3280
    5MOL    C18 9151   4.020   4.946   4.010  0.5716 -0.0446  0.4982
    5MOL    C19 9152   3.766   4.912   4.128  0.0182  0.4404  0.9076
    5MOL    C20 9153   3.962   5.050   4.084  0.7077  0.5534  0.6281
    5MOL    C21 9154   3.839   5.031   4.153  0.0493 -0.1286 -0.3387
    5MOL    C22 9155   3.740   4.671   4.022  0.3131  0.3474 -0.0544
    5MOL    C23 9156   3.617   4.715   3.933  0.1285 -0.1332  0.0438
    5MOL     F1 9157   3.517   4.771   4.011  0.5945  0.2512  0.0706
    5MOL     F2 9158   3.559   4.618   3.865  0.1078 -0.1318 -1.0277
    5MOL     F3 9159   3.642   4.808   3.844 -0.0645 -0.5439  0.1553
    5MOL    C24 9160   3.685   4.608   4.161 -0.4295  0.5732 -0.6084
    5MOL     F4 9161   3.791   4.596   4.243  0.5944  0.3923 -0.0436
    5MOL     F5 9162   3.638   4.486   4.144  0.1730  0.0855 -0.1250
    5MOL     F6 9163   3.585   4.673   4.225  0.0948 -0.1382  0.2921
    5MOL     O2 9164   4.083   4.249   4.115 -0.5096 -0.1412  0.2699
    5MOL    C25 9165   4.152   4.991   3.954 -0.2162  0.5585  0.1312
    5MOL     N4 9166   4.159   5.125   4.001 -0.4183 -0.1890 -0.4996
    5MOL    C26 9167   4.061   5.163   4.090 -0.0854 -0.3297  0.1816
    5MOL     O3 9168   4.051   5.271   4.149 -0.5271 -0.1385 -0.4088
    5MOL    C27 9169   4.651   3.779   3.992  0.2498  0.4758 -0.1071
    5MOL    C28 9170   4.728   3.873   3.930  0.1517 -0.7702  0.0562
    5MOL    C29 9171   4.656   3.771   4.132  0.1924 -0.2870 -0.0523
    5MOL    C30 9172   4.819   3.948   4.006 -0.2449  0.2126 -0.3624
    5MOL    C31 9173   4.754   3.839   4.207 -0.7223  0.2219  0.6621
    5MOL    C32 9174   4.836   3.930   4.143 -0.2033 -0.2601 -0.2222
    5MOL    C33 9175   4.926   4.001   4.215  0.1888  0.0931 -0.2971
    5MOL     N5 9176   5.069   4.006   4.190 -0.3003  0.5901  0.2996
    5MOL     N6 9177   4.900   4.079   4.330  0.6938 -0.5465 -0.6211
    5MOL    C34 9178   5.124   4.071   4.300 -1.0729 -0.5058  0.5760
    5MOL    C35 9179   5.022   4.119   4.377  0.8037  0.4744  0.6610
    5MOL    C36 9180   4.778   4.166   4.339  0.4970  0.0245  0.3243
    5MOL     H1 9181   4.801   4.275   4.318  0.9689 -0.8894 -1.3875
    5MOL     H2 9182   4.741   4.162   4.439  1.3182  2.4019 -0.7665
    5MOL     H3 9183   4.693   4.127   4.273 -1.6679  0.7643 -2.9376
    5MOL    C37 9184   5.127   3.934   4.087 -0.2725  0.1095  0.2356
    5MOL    C38 9185   5.103   3.793   4.065 -0.5317  1.0056 -0.0462
    5MOL    C39 9186   5.172   3.728   3.961  0.3212 -0.1161  0.2468
    5MOL    C40 9187   5.256   3.795   3.875 -0.0462 -0.0966  0.6150
    5MOL    C41 9188   5.278   3.932   3.890  0.3966  0.5011 -0.1724
    5MOL    C42 9189   5.213   3.996   3.995 -0.3375  0.2520 -0.5641
    5MOL    C43 9190   5.031   4.208   4.497 -0.6396  0.6483 -1.5089
    5MOL     F7 9191   5.001   4.336   4.466 -0.4265  0.3147 -0.6390
    5MOL     F8 9192   5.159   4.198   4.551  0.0911 -0.3696  0.4797
    5MOL     F9 9193   4.957   4.157   4.596 -0.3268 -0.3944 -0.2711
    5MOL    C44 9194   4.370   3.602   3.855  0.3190  0.3525 -0.4190
    5MOL    C45 9195   4.468   3.511   3.837 -0.6080  0.2141  0.2044
    5MOL    C46 9196   4.468   3.361   3.802  0.5435  0.4187  0.0008
    5MOL    F10 9197   4.560   3.318   3.721 -0.1535 -0.5200 -0.4043
    5MOL    F11 9198   4.475   3.277   3.915 -0.0112 -0.4025  0.1270
    5MOL     H4 9199   4.264   3.593   3.841  0.9281 -1.8485 -0.9058
    5MOL     H5 9200   4.520   3.961   3.849 -0.9248  0.9850  0.3463
    5MOL     H6 9201   4.397   4.177   3.834  0.4951  1.8367  1.1878
    5MOL     H7 9202   4.149   3.773   3.961 -1.5565  0.2081 -0.8945
    5MOL     H8 9203   4.036   3.992   3.975  1.6089 -0.1161 -1.2635
    5MOL     H9 9204   3.945   4.486   4.120 -0.2198  2.0446 -2.5520
    5MOL    H10 9205   3.760   4.626   3.750 -0.4304  1.7270  0.7621
    5MOL    H11 9206   3.902   4.491   3.629  0.9726  3.0234  0.6856
    5MOL    H12 9207   3.674   4.894   4.178  3.8853 -0.6078  0.0934
    5MOL    H13 9208   3.984   4.753   3.918  1.4297 -0.9257  2.8087
    5MOL    H14 9209   3.809   5.119   4.215 -0.4036 -0.7129  1.2361
    5MOL     O4 9210   4.232   4.938   3.881  0.5827 -0.0460  0.2330
    5MOL    H15 9211   4.716   3.885   3.828  0.5219 -2.1779  1.5086
    5MOL    H16 9212   4.889   4.021   3.963  1.6792  0.2293 -0.5146
    5MOL    H17 9213   4.592   3.704   4.183  1.4133  1.6502  1.4859
    5MOL    H18 9214   5.149   3.622   3.939 -0.0312 -2.8359  0.1962
    5MOL    H19 9215   5.034   3.736   4.123  0.5412  3.2688  1.4831
    5MOL    H20 9216   5.349   3.983   3.822  1.0659  1.7393  1.3024
    5MOL    H21 9217   5.232   4.102   3.999  0.2042  1.5605 -1.7667
    5MOL    H22 9218   5.231   4.095   4.306 -0.0217 -0.3846  2.5715
    5MOL    H23 9219   4.759   3.817   4.316  1.0943  0.6187  0.7205
    5MOL    F12 9220   4.351   3.344   3.741 -0.5504 -0.1016  0.2727
    5MOL    C47 9221   4.727   3.517   3.868 -0.3936  0.0144  0.2811
    5MOL    H24 9222   4.762   3.557   3.767 -0.1601  2.0505 -1.8052
    5MOL    H25 9223   4.730   3.407   3.846 -1.1083  1.1025  0.5926
    5MOL    H26 9224   4.790   3.545   3.957 -0.3169  0.3404 -0.1613
    5MOL     N1 9225   4.541   5.998   4.256 -0.1027 -0.3844 -0.0509
    5MOL     N2 9226   4.576   5.841   4.429 -0.2861  0.6494 -0.0570
    5MOL     C1 9227   4.569   5.860   4.286  0.4479 -0.2514  0.4550
    5MOL     C2 9228   4.605   5.729   4.503 -0.4586 -0.1286  0.1412
    5MOL     C3 9229   4.583   5.601   4.449  0.3099  0.3540  0.1424
    5MOL     C4 9230   4.647   5.494   4.506 -0.0389  0.3463 -1.0264
    5MOL     C5 9231   4.724   5.508   4.620 -0.0205 -0.3492 -0.5752
    5MOL     C6 9232   4.716   5.632   4.690  0.0262  0.2322 -0.2040
    5MOL     C7 9233   4.671   5.744   4.621 -0.9966  0.1045  0.3420
    5MOL     N3 9234   4.786   5.395   4.680 -0.1266  0.5718  0.1303
    5MOL     C8 9235   4.716   5.283   4.721  0.3931  0.1702  0.6192
    5MOL     C9 9236   4.823   5.188   4.759  0.1961  0.1986  0.0338
    5MOL    C10 9237   4.948   5.248   4.743  0.1048  0.1963 -0.4523
    5MOL    C11 9238   4.927   5.386   4.685  0.3755  0.4431  0.1702
    5MOL     O1 9239   5.012   5.468   4.660 -0.3234  0.4556  0.4437
    5MOL    C12 9240   4.814   5.056   4.801 -0.0669  0.7750  0.2815
    5MOL    C13 9241   4.928   4.984   4.835 -0.3605 -0.5388 -0.0216
    5MOL    C14 9242   5.059   5.046   4.820  0.3946  0.3204  0.0527
    5MOL    C15 9243   5.064   5.182   4.774  0.3790  0.6647  0.6897
    5MOL    C16 9244   4.792   4.769   4.835 -0.1024 -0.3505 -0.6991
    5MOL    C17 9245   4.706   4.691   4.916 -0.7851  0.2203  0.8058
    5MOL    C18 9246   4.579   4.655   4.861  0.1883  0.0538 -0.1320
    5MOL    C19 9247   4.761   4.791   4.695 -0.1517 -0.1282  0.4039
    5MOL    C20 9248   4.549   4.676   4.725  0.2871  0.3876 -0.4420
    5MOL    C21 9249   4.644   4.738   4.640  0.2945 -0.2783 -0.6295
    5MOL    C22 9250   4.911   4.846   4.900  0.5289  0.0384 -0.1382
    5MOL    C23 9251   5.028   4.747   4.881 -0.6246 -0.0852 -0.1620
    5MOL     F1 9252   5.077   4.725   4.751  0.4651  0.2624  0.6362
    5MOL     F2 9253   4.990   4.626   4.930 -0.1342  0.0516 -0.3799
    5MOL     F3 9254   5.135   4.791   4.954  0.2239 -0.5785  0.4507
    5MOL    C24 9255   4.889   4.869   5.051  0.4370 -0.4788 -1.1470
    5MOL     F4 9256   4.930   4.775   5.128 -0.5810 -0.0762 -0.5688
    5MOL     F5 9257   4.761   4.906   5.091 -1.0114 -0.2366 -0.0029
    5MOL     F6 9258   4.971   4.974   5.090  0.5205  0.1629 -0.4631
    5MOL     O2 9259   4.596   5.267   4.729 -0.0323  0.3046 -0.2020
    5MOL    C25 9260   4.455   4.600   4.927  0.1363  0.3582  0.8357
    5MOL     N4 9261   4.358   4.602   4.830 -0.1583  0.0211 -0.2061
    5MOL    C26 9262   4.409   4.634   4.708 -0.3351 -0.3331  0.7745
    5MOL     O3 9263   4.342   4.628   4.606 -0.7281 -0.0535 -0.4095
    5MOL    C27 9264   4.588   5.766   4.185  0.2518 -0.3057  0.6254
    5MOL    C28 9265   4.706   5.685   4.177  0.4862  0.1199 -0.0082
    5MOL    C29 9266   4.495   5.767   4.078 -0.6701 -0.0206  0.3923
    5MOL    C30 9267   4.728   5.605   4.067 -0.6603  0.0119 -0.6775
    5MOL    C31 9268   4.524   5.690   3.960  0.2231 -0.6525 -0.3656
    5MOL    C32 9269   4.633   5.604   3.957 -0.7447 -0.3417  0.0738
    5MOL    C33 9270   4.661   5.529   3.844  0.0103 -0.2402 -0.1489
    5MOL     N5 9271   4.578   5.429   3.780 -0.6861 -0.4173 -0.5189
    5MOL     N6 9272   4.764   5.559   3.757  0.2374  1.0553  0.0242
    5MOL    C34 9273   4.643   5.404   3.655 -0.5608  0.2588 -0.0325
    5MOL    C35 9274   4.746   5.481   3.634  0.0163  0.0646  0.2818
    5MOL    C36 9275   4.840   5.682   3.761  0.4802  0.1089 -0.2281
    5MOL     H1 9276   4.817   5.733   3.666  0.1577  1.0548  1.3888
    5MOL     H2 9277   4.948   5.662   3.777 -0.9280  1.5269  2.2326
    5MOL     H3 9278   4.814   5.755   3.841 -0.4766 -0.2072  1.1715
    5MOL    C37 9279   4.464   5.367   3.833  0.0820 -0.7514  0.2983
    5MOL    C38 9280   4.455   5.342   3.976  0.2311  0.4681 -0.0970
    5MOL    C39 9281   4.350   5.274   4.029  0.3760 -0.0537 -0.7195
    5MOL    C40 9282   4.256   5.210   3.944  0.3316 -0.8123  0.1226
    5MOL    C41 9283   4.265   5.231   3.796  0.3214 -0.6204 -0.1792
    5MOL    C42 9284   4.364   5.320   3.747 -0.0134  0.4682  0.0549
    5MOL    C43 9285   4.804   5.510   3.498 -0.4036  0.1023 -0.2106
    5MOL     F7 9286   4.893   5.620   3.505 -0.2793  0.3497  0.0886
    5MOL     F8 9287   4.703   5.539   3.407  0.0729  0.0896 -0.4697
    5MOL     F9 9288   4.866   5.410   3.441 -0.1224  0.2662  0.9235
    5MOL    C44 9289   4.553   5.973   4.478 -0.1365  0.3248  0.2819
    5MOL    C45 9290   4.524   6.064   4.386  0.1358  0.3130  0.5697
    5MOL    C46 9291   4.509   6.219   4.401  0.2114 -0.5183 -0.0765
    5MOL    F10 9292   4.621   6.281   4.353  0.2485  0.3727  0.2324
    5MOL    F11 9293   4.404   6.272   4.339  0.3217 -0.1277 -0.0872
    5MOL     H4 9294   4.557   5.990   4.587 -1.6608 -1.9133  0.4356
    5MOL     H5 9295   4.547   5.589   4.349  0.6088 -0.0955  0.7804
    5MOL     H6 9296   4.650   5.397   4.455  0.7444  1.8881  0.7834
    5MOL     H7 9297   4.678   5.845   4.666 -0.3493  4.2151 -0.2864
    5MOL     H8 9298   4.766   5.644   4.790  1.0996  0.2303  2.6062
    5MOL     H9 9299   4.717   5.009   4.808 -2.5902  0.6995  0.9872
    5MOL    H10 9300   5.152   4.992   4.842  0.5749 -0.0454 -0.1564
    5MOL    H11 9301   5.161   5.230   4.763  1.5819 -0.0654  0.4679
    5MOL    H12 9302   4.828   4.848   4.630  0.8262 -1.5728 -1.4387
    5MOL    H13 9303   4.733   4.669   5.020 -0.0254  4.2655 -2.9085
    5MOL    H14 9304   4.607   4.758   4.538 -0.7526  0.4545 -0.9064
    5MOL     O4 9305   4.446   4.563   5.040  0.6144  0.0559  0.3954
    5MOL    H15 9306   4.780   5.687   4.263  2.3583  0.8252  0.0907
    5MOL    H16 9307   4.815   5.541   4.057 -1.5014 -0.2887  1.7530
    5MOL    H17 9308   4.404   5.829   4.080 -0.9615 -2.5107  0.6610
    5MOL    H18 9309   4.357   5.254   4.142  1.8308 -3.5545  0.2973
    5MOL    H19 9310   4.530   5.375   4.046  1.9303  0.3860  0.2582
    5MOL    H20 9311   4.194   5.181   3.723 -3.6812 -0.1310 -0.8692
    5MOL    H21 9312   4.373   5.330   3.636 -1.4943  0.8684 -2.6103
    5MOL    H22 9313   4.596   5.341   3.586 -0.7173  1.4964  0.0918
    5MOL    H23 9314   4.452   5.700   3.878  2.0270 -1.7430 -1.4016
    5MOL    F12 9315   4.503   6.262   4.531 -0.1105 -0.1924  0.3252
    5MOL    C47 9316   4.616   6.066   4.145  0.4938  0.3914 -0.2085
    5MOL    H24 9317   4.683   6.149   4.179  0.4385  0.5812 -1.2443
    5MOL    H25 9318   4.542   6.106   4.067  2.2204  0.3325  1.5078
    5MOL    H26 9319   4.681   5.985   4.108  4.8985 -1.8331  1.1582
    5MOL     N1 9320   4.116   4.948   4.469 -0.8589  0.3708  0.6131
    5MOL     N2 9321   4.216   4.849   4.287  0.4470 -0.1397 -0.4315
    5MOL     C1 9322   4.110   4.835   4.385 -0.4479  0.3869 -0.0543
    5MOL     C2 9323   4.282   4.757   4.205  0.2321 -0.2779  0.2672
    5MOL     C3 9324   4.270   4.614   4.222  1.1300 -0.2653  0.4451
    5MOL     C4 9325   4.345   4.520   4.147 -0.1521  0.1772 -0.5649
    5MOL     C5 9326   4.454   4.572   4.080 -0.2483  0.3187  0.0771
    5MOL     C6 9327   4.474   4.711   4.061 -0.0810  0.1336 -0.0902
    5MOL     C7 9328   4.393   4.799   4.128 -0.4530 -0.4302  0.9872
    5MOL     N3 9329   4.548   4.483   4.029  0.4606  0.1257  0.5790
    5MOL     C8 9330   4.566   4.464   3.894  0.0942  0.3695 -0.1261
    5MOL     C9 9331   4.692   4.387   3.880  0.0165  0.2245 -0.3395
    5MOL    C10 9332   4.734   4.355   4.008 -0.0258  0.4101 -0.3371
    5MOL    C11 9333   4.638   4.416   4.106 -0.5755 -0.4264  0.1911
    5MOL     O1 9334   4.646   4.411   4.230 -0.1846 -0.7900  0.0877
    5MOL    C12 9335   4.773   4.363   3.768  0.8678  0.2741  0.1241
    5MOL    C13 9336   4.902   4.296   3.783 -0.3525  0.3847  0.2105
    5MOL    C14 9337   4.947   4.262   3.915  0.1114 -0.1801  0.4502
    5MOL    C15 9338   4.862   4.290   4.028 -0.3540 -0.1351 -1.1342
    5MOL    C16 9339   5.132   4.271   3.695 -0.5733 -0.1425 -0.6905
    5MOL    C17 9340   5.238   4.185   3.662 -0.0711  0.3319 -0.2098
    5MOL    C18 9341   5.369   4.219   3.703 -0.3021 -0.2558  0.5211
    5MOL    C19 9342   5.169   4.396   3.754  0.6219  0.6476 -0.1971
    5MOL    C20 9343   5.399   4.341   3.767  0.0109  0.3433  0.4694
    5MOL    C21 9344   5.301   4.433   3.790 -0.6189 -0.4310  0.4205
    5MOL    C22 9345   4.982   4.242   3.667 -0.1361 -0.4205  0.0842
    5MOL    C23 9346   4.948   4.095   3.666 -0.2479  0.6424  0.0561
    5MOL     F1 9347   4.810   4.076   3.678  0.5340  0.1282 -0.3291
    5MOL     F2 9348   5.010   4.032   3.773  0.0799 -0.4596 -0.2454
    5MOL     F3 9349   4.987   4.031   3.551 -0.3416 -0.1520 -0.3242
    5MOL    C24 9350   4.941   4.307   3.535  0.3112 -0.2513  0.9604
    5MOL     F4 9351   4.941   4.438   3.556  0.0243 -0.1818  0.4479
    5MOL     F5 9352   4.822   4.263   3.491  0.3029 -0.2962 -0.1082
    5MOL     F6 9353   5.024   4.288   3.436 -0.0126  0.2374 -0.2003
    5MOL     O2 9354   4.489   4.504   3.808 -0.1842 -0.7997  0.7296
    5MOL    C25 9355   5.504   4.151   3.690  0.2242  0.4230 -1.2894
    5MOL     N4 9356   5.599   4.239   3.734  0.2865  0.1281  0.2181
    5MOL    C26 9357   5.540   4.352   3.781 -0.5026  0.2809  0.4356
    5MOL     O3 9358   5.605   4.448   3.814 -0.3364 -0.0656 -0.2128
    5MOL    C27 9359   4.023   4.736   4.423  0.2683  0.5857 -0.3888
    5MOL    C28 9360   4.069   4.618   4.474 -0.4859 -0.4910 -0.1959
    5MOL    C29 9361   3.886   4.765   4.433 -0.9369  0.2974  0.7006
    5MOL    C30 9362   3.986   4.528   4.536 -0.7136 -0.2193 -0.6584
    5MOL    C31 9363   3.804   4.684   4.506 -0.0812 -0.3158  0.8250
    5MOL    C32 9364   3.852   4.561   4.558 -0.3033  0.4537 -0.8199
    5MOL    C33 9365   3.786   4.495   4.665  0.3270  0.1942 -0.3213
    5MOL     N5 9366   3.810   4.496   4.803 -0.2295 -0.1007  0.8254
    5MOL     N6 9367   3.654   4.443   4.652  0.2394 -0.9841 -0.5765
    5MOL    C34 9368   3.692   4.470   4.866 -0.5607 -0.2372 -0.7049
    5MOL    C35 9369   3.600   4.433   4.777 -0.2958  0.6077 -0.4833
    5MOL    C36 9370   3.589   4.433   4.518  0.4169  0.3685 -0.0103
    5MOL     H1 9371   3.515   4.356   4.512  1.9506 -0.3575 -0.5633
    5MOL     H2 9372   3.665   4.411   4.440 -0.0369 -0.5004  1.3754
    5MOL     H3 9373   3.550   4.526   4.482  0.5649 -1.7032  0.1127
    5MOL    C37 9374   3.940   4.511   4.851 -0.4521 -0.1386  0.0169
    5MOL    C38 9375   4.032   4.411   4.883  0.1222 -0.0241  0.3878
    5MOL    C39 9376   4.169   4.442   4.890  0.8705 -0.4983  0.1613
    5MOL    C40 9377   4.217   4.581   4.856  0.1445 -0.3844 -0.1700
    5MOL    C41 9378   4.125   4.681   4.821 -0.0242  0.1333 -0.1514
    5MOL    C42 9379   3.983   4.651   4.822 -0.5446  0.0986  0.9184
    5MOL    C43 9380   3.457   4.391   4.810 -0.5567 -0.5374  0.0811
    5MOL     F7 9381   3.401   4.320   4.708 -0.6328  0.3145 -0.0819
    5MOL     F8 9382   3.379   4.502   4.839 -0.4728 -0.0578  0.0847
    5MOL     F9 9383   3.456   4.321   4.919  0.0302 -0.2702 -0.1586
    5MOL    C44 9384   4.278   4.971   4.327  0.5719 -0.1939 -0.4615
    5MOL    C45 9385   4.226   5.027   4.430  0.8381  0.6902  0.1106
    5MOL    C46 9386   4.284   5.145   4.508 -0.5909 -0.2949  0.0464
    5MOL    F10 9387   4.338   5.107   4.625  0.6561 -0.0487 -0.1272
    5MOL    F11 9388   4.379   5.221   4.445  0.0169 -0.1801  0.3295
    5MOL     H4 9389   4.365   5.007   4.272  2.0487 -0.7993  2.8840
    5MOL     H5 9390   4.190   4.587   4.288 -1.1615  0.8455 -2.4854
    5MOL     H6 9391   4.338   4.411   4.159 -2.8091 -0.0960  0.2867
    5MOL     H7 9392   4.405   4.906   4.103 -2.6782 -1.5996 -2.4768
    5MOL     H8 9393   4.557   4.740   3.992  1.2247 -0.0212  0.4767
    5MOL     H9 9394   4.729   4.380   3.670 -0.7377 -0.9913 -1.7430
    5MOL    H10 9395   5.042   4.212   3.922 -2.2906 -0.2748 -1.3425
    5MOL    H11 9396   4.900   4.273   4.126  0.5072 -0.7597 -1.6368
    5MOL    H12 9397   5.093   4.474   3.778  3.0776 -0.3527  0.4343
    5MOL    H13 9398   5.206   4.084   3.621 -1.9245 -0.6506 -0.2824
    5MOL    H14 9399   5.317   4.526   3.845  1.7775 -1.3640  0.2707
    5MOL     O4 9400   5.528   4.050   3.633 -0.1793 -0.3193  0.5296
    5MOL    H15 9401   4.174   4.604   4.473  1.6289 -3.1824  1.1511
    5MOL    H16 9402   4.028   4.438   4.578  1.0345 -3.8731  0.5248
    5MOL    H17 9403   3.849   4.865   4.402  0.2876 -0.7316  0.0149
    5MOL    H18 9404   4.251   4.368   4.901  0.7022 -0.0878 -0.8756
    5MOL    H19 9405   3.991   4.313   4.895  1.4438 -0.8477  0.2097
    5MOL    H20 9406   4.162   4.778   4.781  1.6263  0.8641 -1.3428
    5MOL    H21 9407   3.918   4.733   4.775  1.3144  1.6390  0.7218
    5MOL    H22 9408   3.699   4.480   4.978 -0.6369 -0.8873  0.2161
    5MOL    H23 9409   3.705   4.712   4.525  1.2838  1.7394 -0.3451
    5MOL    F12 9410   4.184   5.231   4.533  0.0861 -0.4838  0.2089
    5MOL    C47 9411   4.058   4.973   4.604 -0.0157  0.7323 -0.2428
    5MOL    H24 9412   4.017   5.073   4.602 -1.0519  1.4603  3.4327
    5MOL    H25 9413   4.129   4.987   4.687 -0.6777  2.1306 -2.1683
    5MOL    H26 9414   3.991   4.901   4.637  1.6354  1.9997 -0.2346
    5MOL     N1 9415   5.524   4.648   3.536  0.3063 -0.0746 -0.0687
    5MOL     N2 9416   5.521   4.745   3.739 -0.3515 -0.5382 -0.4286
    5MOL     C1 9417   5.608   4.690   3.642 -0.0204 -0.5875  0.2720
    5MOL     C2 9418   5.549   4.835   3.844  0.2282 -0.0566  0.1205
    5MOL     C3 9419   5.677   4.878   3.886 -0.2671 -0.3592 -0.0122
    5MOL     C4 9420   5.702   4.963   3.989 -0.1828 -0.2860  0.2650
    5MOL     C5 9421   5.592   5.005   4.064 -0.1445 -0.8558 -0.6160
    5MOL     C6 9422   5.461   4.971   4.031 -0.8904  0.2525  0.5301
    5MOL     C7 9423   5.440   4.891   3.916  0.3853 -0.1102  0.0555
    5MOL     N3 9424   5.612   5.087   4.174 -0.3571 -0.4488 -0.6200
    5MOL     C8 9425   5.550   5.211   4.186 -0.2949 -0.0393 -0.1876
    5MOL     C9 9426   5.591   5.266   4.319  0.1027 -0.1688 -0.2937
    5MOL    C10 9427   5.662   5.167   4.385 -0.8187  0.1765  0.3847
    5MOL    C11 9428   5.676   5.045   4.293  0.2550 -0.4734  0.2535
    5MOL     O1 9429   5.720   4.930   4.320 -0.6126 -0.6004 -0.0953
    5MOL    C12 9430   5.556   5.388   4.378 -0.2917 -0.5139 -0.8679
    5MOL    C13 9431   5.593   5.407   4.515  0.1147  0.0716  0.3320
    5MOL    C14 9432   5.672   5.310   4.583  0.3001 -0.1449  0.0900
    5MOL    C15 9433   5.702   5.187   4.516  0.5534  0.3563 -0.4433
    5MOL    C16 9434   5.367   5.528   4.549 -1.3013  0.9595  0.3416
    5MOL    C17 9435   5.295   5.645   4.521  0.5446  0.2022  0.3045
    5MOL    C18 9436   5.172   5.640   4.460  0.0588  0.6533  0.1041
    5MOL    C19 9437   5.310   5.404   4.521 -0.6830 -0.1928 -0.0904
    5MOL    C20 9438   5.120   5.518   4.417 -0.2698  0.6577  0.3095
    5MOL    C21 9439   5.188   5.399   4.450  0.2743  0.0224 -0.0543
    5MOL    C22 9440   5.521   5.528   4.582  0.0178  0.3101 -0.2385
    5MOL    C23 9441   5.529   5.512   4.737 -0.6443 -0.7243 -0.2019
    5MOL     F1 9442   5.442   5.599   4.796  0.1440 -0.2988 -0.0494
    5MOL     F2 9443   5.654   5.537   4.783  0.1944 -0.2327  0.0453
    5MOL     F3 9444   5.486   5.393   4.782  0.5592 -0.4388  0.5950
    5MOL    C24 9445   5.596   5.660   4.542 -0.0690 -0.5834  0.0243
    5MOL     F4 9446   5.725   5.635   4.562  0.2772 -0.3751  0.3937
    5MOL     F5 9447   5.554   5.762   4.615 -0.6917  0.0932 -0.2145
    5MOL     F6 9448   5.580   5.685   4.415  0.1421 -0.4828 -0.1595
    5MOL     O2 9449   5.490   5.273   4.099 -0.2456  0.0425 -0.0658
    5MOL    C25 9450   5.076   5.749   4.422 -0.0533  0.6944 -0.3075
    5MOL     N4 9451   4.975   5.683   4.357  0.0871  0.0222 -0.5067
    5MOL    C26 9452   4.992   5.544   4.345 -1.0731  0.6278 -0.9349
    5MOL     O3 9453   4.913   5.467   4.294 -0.5198 -0.1320 -0.1144
    5MOL    C27 9454   5.749   4.670   3.648  0.1295  0.0998 -0.3423
    5MOL    C28 9455   5.820   4.629   3.764 -0.0216 -0.3223 -0.0767
    5MOL    C29 9456   5.819   4.678   3.524  0.2449  0.4925 -0.0485
    5MOL    C30 9457   5.954   4.587   3.754  0.1347 -0.6025  0.1589
    5MOL    C31 9458   5.952   4.635   3.515 -0.7275 -0.6488 -0.2158
    5MOL    C32 9459   6.019   4.583   3.631  0.2804  0.2032  0.4739
    5MOL    C33 9460   6.133   4.509   3.610 -0.3016 -0.4820  0.2851
    5MOL     N5 9461   6.127   4.363   3.606 -0.4840 -0.2969 -0.8356
    5MOL     N6 9462   6.251   4.547   3.536 -0.6233 -0.1166 -0.1856
    5MOL    C34 9463   6.239   4.321   3.531  0.6429  0.0952 -0.1394
    5MOL    C35 9464   6.304   4.424   3.485  0.3318 -0.2506  0.2285
    5MOL    C36 9465   6.319   4.678   3.531  0.2027 -0.4601  1.2080
    5MOL     H1 9466   6.428   4.669   3.538 -1.9022 -3.2420  2.0430
    5MOL     H2 9467   6.276   4.736   3.614  1.4120  0.4902  0.3774
    5MOL     H3 9468   6.295   4.744   3.449  2.5853  3.4096  2.0291
    5MOL    C37 9469   6.003   4.299   3.629 -0.5837 -0.0738  0.0503
    5MOL    C38 9470   5.898   4.319   3.533  0.3283 -0.6925  0.1299
    5MOL    C39 9471   5.767   4.281   3.567 -0.3796 -0.0257  0.1822
    5MOL    C40 9472   5.737   4.231   3.692 -0.1207 -0.2963  0.7811
    5MOL    C41 9473   5.839   4.198   3.780  0.2340 -0.2554 -0.6176
    5MOL    C42 9474   5.970   4.232   3.749  0.4265 -0.9395 -0.4865
    5MOL    C43 9475   6.409   4.420   3.373  1.1579 -0.6167 -0.1166
    5MOL     F7 9476   6.490   4.530   3.366 -0.5607 -0.0036 -0.3833
    5MOL     F8 9477   6.361   4.398   3.245 -0.0827  0.0635 -0.0870
    5MOL     F9 9478   6.473   4.308   3.406 -0.7303 -0.2802 -0.0988
    5MOL    C44 9479   5.390   4.725   3.688 -0.7516  0.4917 -0.0218
    5MOL    C45 9480   5.393   4.676   3.562  0.0057  0.4625 -0.3006
    5MOL    C46 9481   5.284   4.678   3.457 -0.5613 -0.0343  0.2549
    5MOL    F10 9482   5.333   4.693   3.332 -0.5267 -0.1528  0.7119
    5MOL    F11 9483   5.213   4.566   3.454  0.1244  0.2828 -0.2296
    5MOL     H4 9484   5.297   4.768   3.733  1.2005  0.3105 -0.0775
    5MOL     H5 9485   5.756   4.835   3.825 -0.3445 -0.2922  0.5853
    5MOL     H6 9486   5.803   4.986   4.022 -0.7443  1.0346  2.6256
    5MOL     H7 9487   5.344   4.861   3.892  2.8044 -1.2599  2.9351
    5MOL     H8 9488   5.379   5.009   4.097  2.3576  0.9685  1.5966
    5MOL     H9 9489   5.483   5.457   4.324  0.9283  2.5557 -1.9155
    5MOL    H10 9490   5.692   5.320   4.688  0.9449 -1.3298 -0.4269
    5MOL    H11 9491   5.766   5.121   4.571 -0.2618  1.3260  1.4523
    5MOL    H12 9492   5.365   5.304   4.534  0.3547 -2.0127  0.0285
    5MOL    H13 9493   5.336   5.745   4.532 -0.3623  0.9891  1.3301
    5MOL    H14 9494   5.152   5.304   4.408  1.9499  0.9246  0.2201
    5MOL     O4 9495   5.086   5.871   4.443 -0.4298 -0.2940  0.2695
    5MOL    H15 9496   5.759   4.625   3.854 -0.2530 -0.0671  2.0602
    5MOL    H16 9497   6.010   4.570   3.847  4.5635 -0.1164 -1.1794
    5MOL    H17 9498   5.768   4.708   3.433  0.0575 -2.0573  1.2767
    5MOL    H18 9499   5.687   4.296   3.500  3.3160 -2.0822 -0.0508
    5MOL    H19 9500   5.925   4.367   3.439  1.9069  1.6237  0.5443
    5MOL    H20 9501   5.805   4.157   3.879 -2.5492 -3.6054 -0.1579
    5MOL    H21 9502   6.044   4.225   3.827 -0.1439  1.0252 -1.5928
    5MOL    H22 9503   6.250   4.219   3.505 -1.7382 -0.4190 -2.2973
    5MOL    H23 9504   5.996   4.635   3.414 -1.6844  1.9500 -1.0833
    5MOL    F12 9505   5.199   4.781   3.476  0.9864 -0.4580  0.3022
    5MOL    C47 9506   5.547   4.538   3.447  0.4313  0.4292 -0.5537
    5MOL    H24 9507   5.654   4.508   3.442  4.0848  4.2851  0.4758
    5MOL    H25 9508   5.519   4.571   3.340  2.2651 -2.1580 -2.5600
    5MOL    H26 9509   5.485   4.458   3.484  1.4734 -1.4691  1.8504
    5MOL    H27 9510   4.895   5.735   4.318  0.5747 -3.2031 -3.4474
    6MOL     N1 9511   3.359   2.970   2.843 -0.4040 -0.1233 -0.1476
    6MOL     N2 9512   3.533   3.076   2.947 -0.3868  0.6806 -0.2283
    6MOL     C1 9513   3.389   3.090   2.920  0.4106  0.2341  0.3159
    6MOL     C2 9514   3.619   3.171   2.995  0.9539 -0.2604 -0.2994
    6MOL     C3 9515   3.627   3.176   3.135 -0.2780 -0.1477  0.7129
    6MOL     C4 9516   3.682   3.285   3.199  0.5526 -0.0512  0.7184
    6MOL     C5 9517   3.703   3.405   3.132 -0.1010  0.1208  0.3743
    6MOL     C6 9518   3.694   3.401   2.988  0.1322 -0.2245  0.3637
    6MOL     C7 9519   3.642   3.285   2.923 -0.0112 -0.0367  0.1485
    6MOL     N3 9520   3.717   3.531   3.195 -0.1106  0.0395  0.1113
    6MOL     C8 9521   3.621   3.586   3.268 -0.1732 -0.4222  0.1854
    6MOL     C9 9522   3.688   3.715   3.305  0.4588 -0.3544 -0.0493
    6MOL    C10 9523   3.811   3.727   3.257  0.0654  1.0474  0.8793
    6MOL    C11 9524   3.826   3.605   3.177 -0.4088  0.5527  0.1297
    6MOL     O1 9525   3.929   3.580   3.116  0.1783 -0.2570  0.2794
    6MOL    C12 9526   3.628   3.817   3.377 -0.3356  0.0635 -0.0047
    6MOL    C13 9527   3.710   3.923   3.423 -0.4561 -0.3411  0.9217
    6MOL    C14 9528   3.843   3.934   3.369  0.1233 -0.0007  0.3976
    6MOL    C15 9529   3.892   3.835   3.279 -0.7285  0.0334 -0.7888
    6MOL    C16 9530   3.524   4.075   3.476 -0.0363  0.2571  0.4998
    6MOL    C17 9531   3.505   4.129   3.348  0.0951 -0.2166 -0.4997
    6MOL    C18 9532   3.375   4.158   3.305  0.5176  0.2980  0.5098
    6MOL    C19 9533   3.407   4.050   3.560  0.5313 -0.5677 -0.9643
    6MOL    C20 9534   3.265   4.117   3.378 -0.8237  0.4896 -0.5481
    6MOL    C21 9535   3.273   4.062   3.512 -0.2401  0.0472 -0.5649
    6MOL    C22 9536   3.654   4.022   3.530 -0.0932  0.4063  0.1372
    6MOL    C23 9537   3.643   3.943   3.661  0.6894 -0.0315  0.0853
    6MOL     F1 9538   3.608   4.004   3.773  0.1646  0.0313 -0.1142
    6MOL     F2 9539   3.763   3.890   3.684  0.1784 -0.5245  0.5850
    6MOL     F3 9540   3.559   3.834   3.653  0.4721 -0.1079  0.1753
    6MOL    C24 9541   3.737   4.153   3.555 -0.6247  0.4474  0.1667
    6MOL     F4 9542   3.674   4.239   3.647 -0.0189 -0.8004 -0.1540
    6MOL     F5 9543   3.760   4.228   3.447 -0.2148  0.6048 -0.5175
    6MOL     F6 9544   3.853   4.130   3.617  0.4213  0.5862  0.3347
    6MOL     O2 9545   3.510   3.543   3.295  0.3498  0.1623  0.5996
    6MOL    C25 9546   3.328   4.220   3.177  0.0548 -0.2513  0.6917
    6MOL     N4 9547   3.185   4.213   3.178 -0.5542 -0.3899 -0.6171
    6MOL    C26 9548   3.146   4.158   3.298 -0.3857 -0.1003  0.9174
    6MOL     O3 9549   3.029   4.148   3.330  0.3730  0.4460  0.1340
    6MOL    C27 9550   3.300   3.170   2.991 -0.5192  0.3145  0.3085
    6MOL    C28 9551   3.236   3.269   2.922  0.9516  0.1631  0.7174
    6MOL    C29 9552   3.284   3.150   3.122  0.5034 -0.0065 -0.9245
    6MOL    C30 9553   3.149   3.346   2.992 -0.0826  0.2021 -0.1829
    6MOL    C31 9554   3.199   3.233   3.196 -0.0633  0.8303  0.2304
    6MOL    C32 9555   3.136   3.337   3.130  0.1822  0.1809 -0.9078
    6MOL    C33 9556   3.050   3.418   3.200 -0.3458  0.0688 -0.1326
    6MOL     N5 9557   2.947   3.379   3.293  0.0825  0.4110  0.0736
    6MOL     N6 9558   3.079   3.556   3.220  0.2652  0.6700  0.4088
    6MOL    C34 9559   2.928   3.494   3.372  0.0114  0.7183 -0.5334
    6MOL    C35 9560   2.999   3.595   3.331 -0.0196  0.3987  0.4172
    6MOL    C36 9561   3.208   3.615   3.194 -0.1906  0.2167 -1.0180
    6MOL     H1 9562   3.280   3.553   3.136  0.6008 -1.1584 -0.9530
    6MOL     H2 9563   3.260   3.662   3.281  1.5461 -0.4772  3.0261
    6MOL     H3 9564   3.198   3.691   3.111 -1.3630 -1.0061 -0.5039
    6MOL    C37 9565   2.916   3.245   3.320 -0.9028  0.5275  0.3068
    6MOL    C38 9566   2.856   3.170   3.215  0.3544 -0.0848 -0.4144
    6MOL    C39 9567   2.814   3.037   3.236 -0.2577 -0.1078 -0.8800
    6MOL    C40 9568   2.849   2.974   3.358  0.2322 -0.0461  0.1755
    6MOL    C41 9569   2.921   3.046   3.455 -0.0871  0.2976  0.0229
    6MOL    C42 9570   2.951   3.182   3.437 -0.8701  0.5568  0.4201
    6MOL    C43 9571   2.992   3.737   3.388  0.2677 -0.5343 -0.1381
    6MOL     F7 9572   3.098   3.763   3.469 -0.3306  0.4294 -0.2892
    6MOL     F8 9573   2.869   3.765   3.448 -0.1661  0.5613 -0.5661
    6MOL     F9 9574   3.009   3.827   3.288 -0.2598 -0.5334 -0.4362
    6MOL    C44 9575   3.572   2.964   2.869 -0.5672 -0.2170 -0.9700
    6MOL    C45 9576   3.474   2.895   2.818 -0.0426 -1.0363 -1.1794
    6MOL    C46 9577   3.472   2.759   2.742 -0.2820  0.1289 -0.4181
    6MOL    F10 9578   3.420   2.767   2.620 -0.4476  0.1268 -0.3855
    6MOL    F11 9579   3.590   2.697   2.743 -0.2032 -0.1404 -0.3817
    6MOL     H4 9580   3.685   2.941   2.857  0.0870  2.6404  1.0528
    6MOL     H5 9581   3.596   3.093   3.191  0.6962  0.2201  1.2091
    6MOL     H6 9582   3.682   3.284   3.306 -1.5783 -1.5504  1.2194
    6MOL     H7 9583   3.610   3.300   2.815 -1.6936  0.0871 -2.9704
    6MOL     H8 9584   3.701   3.497   2.931  2.7141  0.0493 -2.2822
    6MOL     H9 9585   3.523   3.805   3.399  0.8029 -0.4797 -1.5242
    6MOL    H10 9586   3.904   4.014   3.405  3.1792  0.8990 -0.4985
    6MOL    H11 9587   3.993   3.826   3.238 -0.6229 -0.8215 -0.6005
    6MOL    H12 9588   3.416   4.024   3.667  0.6811  0.2145 -0.3529
    6MOL    H13 9589   3.590   4.156   3.285 -0.7045 -0.8283  0.5591
    6MOL    H14 9590   3.191   4.043   3.572  3.8641  1.1573  0.6452
    6MOL     O4 9591   3.401   4.254   3.089  0.3094  0.1446 -0.1826
    6MOL    H15 9592   3.244   3.294   2.813  2.2528  1.6740  1.7252
    6MOL    H16 9593   3.084   3.415   2.936 -0.7289 -1.1876 -1.7360
    6MOL    H17 9594   3.333   3.061   3.173  2.0260  0.8304  0.9664
    6MOL    H18 9595   2.750   2.985   3.161 -0.6715 -1.3592 -2.8867
    6MOL    H19 9596   2.813   2.876   3.380 -3.2791 -0.3678 -0.4540
    6MOL    H20 9597   2.830   3.235   3.124 -0.3001  0.9396 -1.9792
    6MOL    H21 9598   2.942   2.998   3.554  2.7205  1.7483 -0.8850
    6MOL    H22 9599   2.987   3.237   3.521 -2.3253 -2.2185  0.5161
    6MOL    H23 9600   2.859   3.486   3.455  0.5183 -0.6969 -1.3148
    6MOL    H24 9601   3.205   3.216   3.304  1.6243  0.0906  3.3796
    6MOL    F12 9602   3.386   2.674   2.811  0.2669 -0.1766 -0.4882
    6MOL    C47 9603   3.227   2.943   2.791  0.6078  0.1371  0.8975
    6MOL    H25 9604   3.214   3.007   2.700 -1.5631 -0.8301  0.1094
    6MOL    H26 9605   3.153   2.970   2.865 -3.1621  1.3672  1.1502
    6MOL    H27 9606   3.214   2.831   2.768  0.6283  0.1774 -0.1008
    6MOL     N1 9607   2.682   3.778   2.951 -0.3415  0.2333 -0.2537
    6MOL     N2 9608   2.599   3.704   2.755 -0.1174  0.0644  0.5062
    6MOL     C1 9609   2.671   3.810   2.815  0.3087 -0.3211 -0.8487
    6MOL     C2 9610   2.545   3.707   2.627 -0.0347  0.3140 -0.3444
    6MOL     C3 9611   2.480   3.819   2.586 -0.0418 -1.1343 -0.5755
    6MOL     C4 9612   2.409   3.814   2.463  0.3138 -0.5383 -0.5734
    6MOL     C5 9613   2.397   3.693   2.393  0.1778 -0.8431 -0.3950
    6MOL     C6 9614   2.466   3.571   2.442 -0.6943  0.1955  0.0961
    6MOL     C7 9615   2.546   3.587   2.560 -0.0097 -0.0942  0.6178
    6MOL     N3 9616   2.300   3.677   2.292  0.5330  0.0332  0.4191
    6MOL     C8 9617   2.198   3.586   2.309  0.5676  0.9538 -0.7911
    6MOL     C9 9618   2.116   3.576   2.185  0.7868 -0.4885  0.4438
    6MOL    C10 9619   2.180   3.662   2.100 -0.0828 -0.1601  0.5609
    6MOL    C11 9620   2.299   3.732   2.164 -0.1099 -0.5726 -0.7371
    6MOL     O1 9621   2.371   3.820   2.119  0.5125 -0.4296  0.2531
    6MOL    C12 9622   2.012   3.490   2.137 -0.2518 -0.1161 -0.0541
    6MOL    C13 9623   1.972   3.491   2.001  0.1305 -0.0771  0.6447
    6MOL    C14 9624   2.035   3.589   1.923  0.5825 -0.0659 -0.1031
    6MOL    C15 9625   2.142   3.672   1.968 -0.0466  0.0875 -0.4785
    6MOL    C16 9626   1.729   3.453   1.969  0.4085  0.5464 -0.6276
    6MOL    C17 9627   1.631   3.398   2.060 -0.6531 -0.1092 -0.0334
    6MOL    C18 9628   1.502   3.453   2.073  0.2493 -0.0291 -0.4673
    6MOL    C19 9629   1.688   3.559   1.885 -0.0216  0.7860  0.0143
    6MOL    C20 9630   1.468   3.555   1.988 -0.1328 -0.4504 -0.3595
    6MOL    C21 9631   1.559   3.613   1.900 -0.1813  0.9381  0.3363
    6MOL    C22 9632   1.870   3.387   1.956  0.5821  0.1331  0.0050
    6MOL    C23 9633   1.897   3.355   1.796  0.0691 -0.2638 -0.1980
    6MOL     F1 9634   1.837   3.246   1.741  0.2047  0.3278 -0.2228
    6MOL     F2 9635   2.030   3.331   1.779 -0.6701  0.2856  0.4714
    6MOL     F3 9636   1.880   3.453   1.704 -0.0578  0.2028  0.0052
    6MOL    C24 9637   1.895   3.244   2.028 -0.1315  0.7951 -0.8857
    6MOL     F4 9638   2.028   3.226   2.052  0.0551 -0.4155 -0.0620
    6MOL     F5 9639   1.832   3.140   1.978 -0.1188  0.2958  0.1323
    6MOL     F6 9640   1.853   3.234   2.159 -0.4583  0.4168  0.7877
    6MOL     O2 9641   2.176   3.530   2.415  0.4384 -0.3399 -0.3633
    6MOL    C25 9642   1.382   3.426   2.160 -0.5480  1.3728  0.5738
    6MOL     N4 9643   1.277   3.512   2.112 -0.1968 -0.3009  0.0916
    6MOL    C26 9644   1.324   3.591   2.006  0.6390 -0.7494 -0.2471
    6MOL     O3 9645   1.262   3.675   1.948  0.5908 -0.3751 -0.3174
    6MOL    C27 9646   2.693   3.940   2.765 -0.1000 -0.0899  0.7560
    6MOL    C28 9647   2.657   4.038   2.851  0.6842  0.4803 -0.2058
    6MOL    C29 9648   2.757   3.970   2.641 -0.1724  0.8818 -0.3069
    6MOL    C30 9649   2.683   4.169   2.823 -0.0088 -0.4834  0.0659
    6MOL    C31 9650   2.777   4.108   2.608 -0.1049  0.7308  0.0205
    6MOL    C32 9651   2.739   4.207   2.701  0.1149 -0.0772 -0.5259
    6MOL    C33 9652   2.772   4.342   2.682 -0.3161  0.6147  0.0212
    6MOL     N5 9653   2.876   4.413   2.751 -0.2667  0.0164 -0.0334
    6MOL     N6 9654   2.701   4.432   2.597  0.1158  0.0517 -0.8476
    6MOL    C34 9655   2.841   4.547   2.722  0.2763  0.1006 -0.0475
    6MOL    C35 9656   2.742   4.565   2.638  0.6333  0.1556  0.5256
    6MOL    C36 9657   2.575   4.391   2.535  0.5293  0.1693 -1.2245
    6MOL     H1 9658   2.559   4.473   2.465  2.1337  0.9812  2.0080
    6MOL     H2 9659   2.490   4.389   2.603  1.1099  0.5339 -0.9636
    6MOL     H3 9660   2.602   4.290   2.489  0.0733 -0.1255 -1.0658
    6MOL    C37 9661   2.957   4.361   2.858  0.0523 -0.2579  0.0681
    6MOL    C38 9662   3.054   4.261   2.833  0.6421  0.4074  0.0735
    6MOL    C39 9663   3.139   4.218   2.940 -0.2962  0.1973 -0.1566
    6MOL    C40 9664   3.114   4.268   3.071 -0.3716  0.0501  0.0163
    6MOL    C41 9665   3.028   4.375   3.090  0.6577 -0.2957  0.4751
    6MOL    C42 9666   2.949   4.419   2.978 -0.4942 -0.2610  0.6937
    6MOL    C43 9667   2.678   4.691   2.597  0.0766  0.1147  0.3573
    6MOL     F7 9668   2.547   4.686   2.562  0.5785  0.1930 -0.1285
    6MOL     F8 9669   2.752   4.742   2.491  0.0244  0.2458  0.1319
    6MOL     F9 9670   2.698   4.787   2.691  0.2398 -0.0905 -0.1929
    6MOL    C44 9671   2.565   3.617   2.860 -0.3512 -0.5752  0.4115
    6MOL    C45 9672   2.623   3.650   2.973  0.5868  0.4340  0.2578
    6MOL    C46 9673   2.609   3.574   3.103  0.0072  0.6297  0.0744
    6MOL    F10 9674   2.507   3.497   3.092  0.1590  0.1530  0.0648
    6MOL    F11 9675   2.720   3.490   3.130 -0.1601 -0.9331  0.7263
    6MOL     H4 9676   2.509   3.535   2.835 -0.0588  0.2335 -2.1628
    6MOL     H5 9677   2.480   3.910   2.646  0.0563  0.1571  1.9742
    6MOL     H6 9678   2.357   3.903   2.448 -0.1573  0.0949  1.5125
    6MOL     H7 9679   2.587   3.493   2.605  1.7285 -0.3684 -1.4295
    6MOL     H8 9680   2.462   3.474   2.386 -1.2762 -1.2146  0.0180
    6MOL     H9 9681   1.953   3.430   2.213 -3.0880 -1.1064 -1.5064
    6MOL    H10 9682   2.011   3.587   1.814 -0.3508  1.5120  0.1848
    6MOL    H11 9683   2.180   3.743   1.902  0.5127  0.3885 -0.8219
    6MOL    H12 9684   1.756   3.605   1.817  0.5403  1.6230  0.2921
    6MOL    H13 9685   1.654   3.303   2.116 -1.1782 -0.6402 -2.1536
    6MOL    H14 9686   1.515   3.692   1.842 -2.9143  0.8051  0.0825
    6MOL     O4 9687   1.374   3.338   2.248 -0.6537  0.3081  0.4795
    6MOL    H15 9688   2.618   4.014   2.956  0.6182 -1.7037  2.3499
    6MOL    H16 9689   2.643   4.241   2.898  1.4867  1.4738 -0.8030
    6MOL    H17 9690   2.772   3.882   2.579  1.3981 -0.7133  1.0486
    6MOL    H18 9691   3.214   4.134   2.935  0.8750 -1.0959 -0.6623
    6MOL    H19 9692   3.070   4.224   2.732  1.4892 -1.7543 -0.5577
    6MOL    H20 9693   3.014   4.417   3.189  1.2100  0.9194 -0.3903
    6MOL    H21 9694   2.877   4.502   3.006 -0.6422  1.6956  0.0599
    6MOL    H22 9695   2.901   4.630   2.770  0.2996  0.9892  1.2808
    6MOL    H23 9696   2.838   4.131   2.523 -0.4386 -1.3929 -0.2231
    6MOL    F12 9697   2.580   3.649   3.212  0.5529 -0.2429  0.4638
    6MOL    C47 9698   2.774   3.838   3.050  0.4016 -0.8859  0.4092
    6MOL    H24 9699   2.861   3.771   3.072  3.7195 -3.5970 -0.5547
    6MOL    H25 9700   2.715   3.855   3.145  1.0155  1.0183  1.7800
    6MOL    H26 9701   2.806   3.935   3.008 -1.3997  0.0364  2.2352
    6MOL     N1 9702   1.039   4.247   2.264  0.6378  0.2765  0.1544
    6MOL     N2 9703   1.076   4.260   2.481 -0.6158  0.4926 -0.5033
    6MOL     C1 9704   1.041   4.168   2.380 -0.7369  0.4607  0.4533
    6MOL     C2 9705   1.040   4.243   2.612  0.0798  0.8528 -0.0300
    6MOL     C3 9706   0.901   4.233   2.631 -0.5503 -0.0549  0.2300
    6MOL     C4 9707   0.855   4.166   2.740 -0.1853 -0.2327  0.4966
    6MOL     C5 9708   0.952   4.129   2.838  0.7886 -0.1888  0.3610
    6MOL     C6 9709   1.088   4.169   2.831  0.7060  0.6814  0.0510
    6MOL     C7 9710   1.138   4.215   2.710 -0.7343 -0.7124  0.2038
    6MOL     N3 9711   0.911   4.052   2.948  1.0890 -0.0248  0.5379
    6MOL     C8 9712   0.907   4.115   3.075 -0.1124 -0.1470  0.2985
    6MOL     C9 9713   0.844   4.003   3.151 -0.1879 -0.2547 -0.6720
    6MOL    C10 9714   0.797   3.901   3.070  0.0070 -0.1556 -0.4048
    6MOL    C11 9715   0.854   3.923   2.940 -0.3936 -0.0259 -0.0671
    6MOL     O1 9716   0.857   3.848   2.844  0.1395  0.9618  0.2552
    6MOL    C12 9717   0.804   4.003   3.286 -0.6511 -0.7945 -0.1918
    6MOL    C13 9718   0.713   3.899   3.334  0.0135  0.1142  0.4267
    6MOL    C14 9719   0.679   3.786   3.247  0.2452 -0.5555 -0.9420
    6MOL    C15 9720   0.723   3.792   3.113  0.8133 -0.6777 -0.3029
    6MOL    C16 9721   0.536   4.056   3.420  0.4084  0.0347  0.5199
    6MOL    C17 9722   0.510   4.101   3.294  0.5340 -0.3354  0.2568
    6MOL    C18 9723   0.429   4.215   3.275  0.5726 -0.4128  0.4124
    6MOL    C19 9724   0.476   4.125   3.526 -0.3648  0.3024 -1.3487
    6MOL    C20 9725   0.358   4.266   3.377 -0.4214  0.0618  0.7444
    6MOL    C21 9726   0.374   4.217   3.507 -0.7395  0.3281 -0.9829
    6MOL    C22 9727   0.627   3.927   3.454 -0.4728 -0.3566  0.4156
    6MOL    C23 9728   0.538   3.812   3.494 -0.3900 -0.9709  0.4886
    6MOL     F1 9729   0.471   3.836   3.617  0.4546  0.1254 -0.0514
    6MOL     F2 9730   0.604   3.697   3.503 -0.1750 -0.1451 -0.6194
    6MOL     F3 9731   0.441   3.790   3.400  0.0569 -0.1068 -0.1620
    6MOL    C24 9732   0.731   3.957   3.569 -0.1962 -0.7309 -0.0272
    6MOL     F4 9733   0.841   3.880   3.552 -0.4901  0.0224  1.0964
    6MOL     F5 9734   0.694   3.940   3.700 -0.3074  0.2062  0.2834
    6MOL     F6 9735   0.772   4.084   3.561 -0.2661 -0.3101 -0.3146
    6MOL     O2 9736   0.950   4.218   3.123  0.0937 -0.1911  0.0251
    6MOL    C25 9737   0.379   4.275   3.145  0.5724  0.4800  0.5773
    6MOL     N4 9738   0.262   4.346   3.174  0.1502 -0.7540  0.4544
    6MOL    C26 9739   0.254   4.351   3.310  0.0464  0.7681 -0.4845
    6MOL     O3 9740   0.156   4.407   3.361  0.2447 -0.2679  0.2740
    6MOL    C27 9741   0.971   4.045   2.402  0.1466 -0.2738  0.1313
    6MOL    C28 9742   0.839   4.034   2.364  0.4972  0.0647  0.0469
    6MOL    C29 9743   1.032   3.940   2.475 -0.4017  0.0980 -0.3700
    6MOL    C30 9744   0.768   3.916   2.400  0.1251 -0.0350  0.5900
    6MOL    C31 9745   0.962   3.818   2.503  0.4341 -0.3537  0.4695
    6MOL    C32 9746   0.827   3.807   2.458  0.1294  0.1435  0.0900
    6MOL    C33 9747   0.758   3.688   2.462 -0.1943  0.0492  0.1167
    6MOL     N5 9748   0.785   3.561   2.401  0.4383 -0.0768  0.2973
    6MOL     N6 9749   0.669   3.655   2.570  0.4455  0.5628 -0.5411
    6MOL    C34 9750   0.725   3.460   2.478  0.0292  0.1661 -0.1596
    6MOL    C35 9751   0.657   3.516   2.580 -0.3113  0.1560 -0.5376
    6MOL    C36 9752   0.616   3.754   2.661  0.1077 -0.3365  0.4908
    6MOL     H1 9753   0.677   3.762   2.755  1.6502  1.8464  0.9157
    6MOL     H2 9754   0.507   3.735   2.672  0.1742 -1.7258 -1.3890
    6MOL     H3 9755   0.625   3.853   2.622  1.0094 -0.6510  2.0475
    6MOL    C37 9756   0.894   3.540   2.315 -0.4706  0.3287 -0.6603
    6MOL    C38 9757   0.950   3.650   2.249 -0.7556  0.6090 -0.1183
    6MOL    C39 9758   1.078   3.638   2.183  0.1901 -0.1614  0.9730
    6MOL    C40 9759   1.147   3.519   2.170  0.1080  0.0055  0.1441
    6MOL    C41 9760   1.087   3.403   2.234  0.5081  0.2828  0.8631
    6MOL    C42 9761   0.969   3.415   2.307 -1.0012 -0.5992  0.2351
    6MOL    C43 9762   0.570   3.446   2.679  0.2772 -0.4097 -0.6119
    6MOL     F7 9763   0.591   3.495   2.810 -0.0641 -0.4884 -0.1805
    6MOL     F8 9764   0.608   3.318   2.672 -0.5450  0.0242  0.0668
    6MOL     F9 9765   0.432   3.448   2.655 -0.3631 -0.5458 -0.3373
    6MOL    C44 9766   1.099   4.378   2.414 -0.4465  0.6168  0.5031
    6MOL    C45 9767   1.066   4.379   2.288 -0.0806  0.4513  0.9582
    6MOL    C46 9768   1.061   4.501   2.188 -0.3400  0.2274  0.2891
    6MOL    F10 9769   0.945   4.565   2.197 -0.2038  0.2305 -0.3321
    6MOL    F11 9770   1.171   4.590   2.204  0.3844 -0.0370  0.0943
    6MOL     H4 9771   1.118   4.465   2.472 -1.6076 -0.0018 -2.7043
    6MOL     H5 9772   0.826   4.250   2.551 -3.1431 -3.8047 -2.9090
    6MOL     H6 9773   0.751   4.134   2.741 -0.3858  0.2762 -0.8556
    6MOL     H7 9774   1.244   4.221   2.685 -0.0713  0.0696  0.2126
    6MOL     H8 9775   1.158   4.140   2.913  0.2364  0.1562 -2.4069
    6MOL     H9 9776   0.829   4.097   3.345  1.9718  0.7531  0.7587
    6MOL    H10 9777   0.604   3.712   3.272 -0.9389  0.6628 -1.1145
    6MOL    H11 9778   0.683   3.712   3.058  0.0167 -1.9809  2.4246
    6MOL    H12 9779   0.508   4.093   3.625 -0.3369 -0.8931 -0.6855
    6MOL    H13 9780   0.564   4.055   3.207 -2.6460 -3.2936 -2.0775
    6MOL    H14 9781   0.309   4.247   3.593  1.7107  0.3851  1.0927
    6MOL     O4 9782   0.430   4.246   3.035 -0.5608 -0.5631  0.4894
    6MOL    H15 9783   0.784   4.115   2.318 -1.3375 -0.1652  0.3625
    6MOL    H16 9784   0.665   3.909   2.362  0.1951 -0.6732 -0.1278
    6MOL    H17 9785   1.129   3.959   2.514  0.9248  0.2862 -2.3399
    6MOL    H18 9786   1.126   3.733   2.148 -0.6171 -1.1559 -3.3118
    6MOL    H19 9787   0.904   3.749   2.234  2.7308 -1.8038 -0.7791
    6MOL    H20 9788   1.132   3.309   2.224  0.7688  0.4912  0.9160
    6MOL    H21 9789   0.928   3.321   2.356 -0.4035  0.6406 -1.4383
    6MOL    H22 9790   0.736   3.359   2.445 -1.0653  0.6961 -1.6431
    6MOL    H23 9791   1.017   3.741   2.553  0.5372  0.2660  0.2353
    6MOL    F12 9792   1.074   4.470   2.059  0.3064 -0.3647  0.0441
    6MOL    C47 9793   1.014   4.192   2.133 -0.8673 -0.7021  0.2740
    6MOL    H24 9794   1.107   4.160   2.089  0.5221  2.4476  0.7143
    6MOL    H25 9795   0.967   4.273   2.069  0.4651 -2.7984 -0.6853
    6MOL    H26 9796   0.949   4.104   2.148 -2.2646  0.1157  0.5114
    6MOL     N1 9797  -0.040   4.144   3.331  0.0663 -0.0185 -0.6204
    6MOL     N2 9798  -0.096   4.269   3.505 -0.1217 -0.1674  0.0160
    6MOL     C1 9799  -0.115   4.256   3.368 -0.2104 -0.9970 -0.0483
    6MOL     C2 9800  -0.182   4.334   3.594 -0.0736  0.1476 -0.0166
    6MOL     C3 9801  -0.203   4.474   3.579  0.5868  0.5946  0.4118
    6MOL     C4 9802  -0.305   4.536   3.662  0.2815  0.4472  0.9375
    6MOL     C5 9803  -0.378   4.463   3.757 -0.2747  0.0620 -0.2878
    6MOL     C6 9804  -0.358   4.324   3.768 -0.0325  0.1158  0.2207
    6MOL     C7 9805  -0.261   4.261   3.685 -0.1795  0.7158 -0.0836
    6MOL     N3 9806  -0.475   4.528   3.843  0.1138 -0.1000 -0.2991
    6MOL     C8 9807  -0.592   4.469   3.887 -0.3548 -0.9236  0.1750
    6MOL     C9 9808  -0.646   4.564   3.994 -0.7211  0.1924  0.6268
    6MOL    C10 9809  -0.561   4.674   4.001  1.1226  0.3022 -0.4342
    6MOL    C11 9810  -0.456   4.657   3.893  0.0466  0.3660 -0.2491
    6MOL     O1 9811  -0.367   4.736   3.861  0.0262  0.0825  0.0073
    6MOL    C12 9812  -0.765   4.555   4.066 -0.3414 -0.7367  0.0306
    6MOL    C13 9813  -0.798   4.658   4.157 -0.1847 -0.0479  0.3568
    6MOL    C14 9814  -0.705   4.764   4.171 -0.9067  0.1846  0.0129
    6MOL    C15 9815  -0.581   4.775   4.095 -0.1957  0.6050  0.1773
    6MOL    C16 9816  -0.925   4.487   4.300 -0.4892  1.1200  0.3313
    6MOL    C17 9817  -0.802   4.405   4.303  0.5380 -0.0071  0.4396
    6MOL    C18 9818  -0.813   4.273   4.336  0.1291  0.0345  0.5121
    6MOL    C19 9819  -1.051   4.423   4.324 -0.2307 -0.7849 -0.0251
    6MOL    C20 9820  -0.936   4.219   4.368 -0.3438 -0.6752 -0.1834
    6MOL    C21 9821  -1.055   4.289   4.363 -0.1485  0.1475  0.0916
    6MOL    C22 9822  -0.919   4.638   4.253 -0.2012  0.1750  0.3344
    6MOL    C23 9823  -0.900   4.729   4.385 -0.1924 -0.0858  0.6077
    6MOL     F1 9824  -1.009   4.687   4.470 -0.6493  0.0262 -0.5839
    6MOL     F2 9825  -0.899   4.862   4.367 -0.2380  0.2474 -0.0433
    6MOL     F3 9826  -0.788   4.693   4.449 -0.0606  0.5642 -0.0362
    6MOL    C24 9827  -1.054   4.685   4.174 -0.5213  0.7674  0.3668
    6MOL     F4 9828  -1.074   4.609   4.062 -0.1121  0.2705  0.3435
    6MOL     F5 9829  -1.044   4.810   4.128 -0.4783 -0.0400 -0.3083
    6MOL     F6 9830  -1.167   4.679   4.248 -0.2569 -0.0017  0.1770
    6MOL     O2 9831  -0.628   4.354   3.867  0.0698 -0.3046 -0.0695
    6MOL    C25 9832  -0.714   4.158   4.333 -0.5990 -0.6381 -0.3929
    6MOL     N4 9833  -0.786   4.040   4.353 -0.3871  0.9615 -0.4556
    6MOL    C26 9834  -0.919   4.072   4.378 -0.0004  0.0304  1.0058
    6MOL     O3 9835  -0.997   3.984   4.411  0.2716 -0.6057 -0.6208
    6MOL    C27 9836  -0.159   4.355   3.285  0.0577  0.4072 -0.9696
    6MOL    C28 9837  -0.097   4.479   3.282 -0.0888 -0.3243 -0.4975
    6MOL    C29 9838  -0.260   4.320   3.185 -0.2390  0.2580  1.0292
    6MOL    C30 9839  -0.141   4.577   3.202  0.5762 -0.0922  0.3821
    6MOL    C31 9840  -0.287   4.413   3.087 -0.6237 -0.7812  0.7490
    6MOL    C32 9841  -0.225   4.539   3.094 -0.0689  0.3519 -0.7229
    6MOL    C33 9842  -0.228   4.632   2.994 -0.4612 -0.2642 -0.5010
    6MOL     N5 9843  -0.115   4.653   2.918  0.3455 -0.4688  0.0805
    6MOL     N6 9844  -0.336   4.702   2.932 -0.6930 -0.1119 -0.1374
    6MOL    C34 9845  -0.149   4.734   2.809  0.0725  0.2600  0.3700
    6MOL    C35 9846  -0.279   4.758   2.816 -0.1080 -0.2263  0.1020
    6MOL    C36 9847  -0.468   4.654   2.922  0.2426  0.0671  0.0041
    6MOL     H1 9848  -0.480   4.608   2.819 -1.0571  4.8415 -0.7636
    6MOL     H2 9849  -0.541   4.732   2.922 -1.7529 -1.3915  1.2423
    6MOL     H3 9850  -0.491   4.588   3.004 -1.6193 -2.3220  0.4868
    6MOL    C37 9851   0.001   4.580   2.943  0.0304 -0.5711 -0.0624
    6MOL    C38 9852   0.105   4.643   3.013  0.1506  0.9969  0.1620
    6MOL    C39 9853   0.200   4.562   3.079 -0.0912 -0.3252  0.6831
    6MOL    C40 9854   0.183   4.427   3.084 -0.2850  0.7451  0.3195
    6MOL    C41 9855   0.096   4.365   2.986 -0.6842  0.0135 -0.4718
    6MOL    C42 9856   0.008   4.442   2.908  0.4053  0.5858 -0.0609
    6MOL    C43 9857  -0.357   4.838   2.719 -0.9728  0.2507 -0.4754
    6MOL     F7 9858  -0.454   4.757   2.658  0.2676 -1.0647 -0.6468
    6MOL     F8 9859  -0.282   4.896   2.617 -0.0709  0.2880  0.7803
    6MOL     F9 9860  -0.411   4.925   2.803  0.2149  0.1257 -0.0413
    6MOL    C44 9861   0.002   4.169   3.541 -0.0635 -0.6019 -0.1558
    6MOL    C45 9862   0.028   4.089   3.436 -0.1150  0.1671 -0.6704
    6MOL    C46 9863   0.118   3.969   3.434  0.0954 -0.4070  0.4557
    6MOL    F10 9864   0.217   3.986   3.340 -0.1941  0.2709 -0.2306
    6MOL    F11 9865   0.175   3.944   3.557 -0.2245 -0.2742 -0.1311
    6MOL     H4 9866   0.035   4.141   3.643  2.0393 -2.7227 -1.4170
    6MOL     H5 9867  -0.140   4.533   3.517 -1.6027  1.6945 -0.9877
    6MOL     H6 9868  -0.320   4.638   3.646  1.4593 -2.1398  0.0061
    6MOL     H7 9869  -0.239   4.153   3.703 -1.7272 -2.7778 -0.2977
    6MOL     H8 9870  -0.410   4.265   3.845  1.2703 -1.0845 -1.5887
    6MOL     H9 9871  -0.816   4.466   4.050  2.1693 -1.1149  0.4468
    6MOL    H10 9872  -0.732   4.841   4.233 -1.0077 -0.4119  2.0703
    6MOL    H11 9873  -0.521   4.858   4.107 -2.0670 -0.6943  0.4229
    6MOL    H12 9874  -1.147   4.468   4.329  0.0543  0.7714  1.7515
    6MOL    H13 9875  -0.703   4.456   4.285 -0.2475  0.8840  3.1356
    6MOL    H14 9876  -1.144   4.235   4.396  1.3400 -0.0144 -1.4941
    6MOL     O4 9877  -0.590   4.164   4.317  0.4225 -0.5525  0.2375
    6MOL    H15 9878  -0.023   4.501   3.364  0.8443 -1.5444  0.5183
    6MOL    H16 9879  -0.096   4.670   3.206  0.0658 -0.4522 -0.5272
    6MOL    H17 9880  -0.305   4.220   3.180 -0.8276 -0.4338 -0.9972
    6MOL    H18 9881   0.278   4.611   3.140  2.3102 -0.2058  1.8896
    6MOL    H19 9882   0.106   4.753   3.026  0.6516  1.9023  0.3111
    6MOL    H20 9883   0.089   4.250   2.982 -1.2695 -0.7481  0.0236
    6MOL    H21 9884  -0.062   4.406   2.838  0.0705 -0.2740  2.1238
    6MOL    H22 9885  -0.068   4.758   2.737 -0.5659  0.2240  1.0715
    6MOL    H23 9886  -0.363   4.387   3.015 -0.1106 -3.0440  0.9197
    6MOL    F12 9887   0.033   3.866   3.390  0.4076  0.0091  0.0322
    6MOL    C47 9888  -0.047   4.092   3.194  0.1891  0.7051  0.2896
    6MOL    H24 9889  -0.117   4.009   3.180 -0.4188  0.3204 -0.9472
    6MOL    H25 9890   0.050   4.050   3.174 -0.4153  1.2789  0.8632
    6MOL    H26 9891  -0.069   4.169   3.122 -0.4422  0.2683 -0.0616
    6MOL     N1 9892  -0.915   4.001   4.762 -0.3790 -0.2777  0.2625
    6MOL     N2 9893  -1.144   3.962   4.735 -0.2799 -0.2894  0.3827
    6MOL     C1 9894  -1.015   3.899   4.752  0.1866  0.1772 -0.5519
    6MOL     C2 9895  -1.271   3.898   4.730 -0.0637 -0.3553  0.0292
    6MOL     C3 9896  -1.283   3.758   4.731  0.1906 -0.2357  0.4105
    6MOL     C4 9897  -1.411   3.698   4.726  0.1406  0.0749 -0.1537
    6MOL     C5 9898  -1.529   3.775   4.730  0.4715 -1.1456 -0.7103
    6MOL     C6 9899  -1.519   3.921   4.715 -0.2192  0.1662  0.5064
    6MOL     C7 9900  -1.390   3.975   4.708  0.8939  1.2630 -1.1530
    6MOL     N3 9901  -1.662   3.713   4.723 -0.1574 -0.1358  0.1693
    6MOL     C8 9902  -1.773   3.766   4.650 -0.2353 -0.3054 -0.2460
    6MOL     C9 9903  -1.885   3.682   4.694  0.9118 -0.1733  1.0889
    6MOL    C10 9904  -1.845   3.597   4.796  0.7402  0.7584  0.3661
    6MOL    C11 9905  -1.697   3.616   4.812 -0.6531  0.4561  0.3012
    6MOL     O1 9906  -1.620   3.555   4.889  0.0063  0.4901  0.2172
    6MOL    C12 9907  -2.025   3.687   4.659 -1.3014 -0.4833 -0.4993
    6MOL    C13 9908  -2.117   3.606   4.724 -0.3451 -0.3777 -0.6870
    6MOL    C14 9909  -2.068   3.519   4.826 -0.8757 -0.3236  0.2481
    6MOL    C15 9910  -1.932   3.509   4.852  0.2309  0.1932  0.1924
    6MOL    C16 9911  -2.285   3.439   4.671 -0.3421 -0.1237 -0.2321
    6MOL    C17 9912  -2.234   3.373   4.553 -0.4877 -0.0385  1.2257
    6MOL    C18 9913  -2.255   3.240   4.537  0.9237  0.6387 -0.1891
    6MOL    C19 9914  -2.329   3.356   4.779 -0.4100 -0.4535 -0.0495
    6MOL    C20 9915  -2.293   3.160   4.639  1.0315 -0.5031  0.0671
    6MOL    C21 9916  -2.324   3.215   4.766  0.8175  0.0772 -0.0556
    6MOL    C22 9917  -2.269   3.588   4.689 -0.4234 -0.1739 -0.5521
    6MOL    C23 9918  -2.375   3.653   4.797 -0.6893  0.6124 -0.7110
    6MOL     F1 9919  -2.508   3.622   4.773  0.6471 -0.3641 -0.3487
    6MOL     F2 9920  -2.357   3.790   4.805  0.2084 -0.5158  0.2346
    6MOL     F3 9921  -2.342   3.615   4.921  0.0902  0.2548  0.1414
    6MOL    C24 9922  -2.309   3.652   4.546  0.0674  0.5208  1.0486
    6MOL     F4 9923  -2.337   3.786   4.550 -0.1360 -0.3418  0.2405
    6MOL     F5 9924  -2.414   3.578   4.490 -0.5220 -0.5529  0.4961
    6MOL     F6 9925  -2.212   3.647   4.449  0.2079  0.7457  0.4075
    6MOL     O2 9926  -1.783   3.858   4.566  0.2517  0.3588 -0.7933
    6MOL    C25 9927  -2.243   3.154   4.419 -0.2728 -0.5705  0.0639
    6MOL     N4 9928  -2.261   3.025   4.464  0.0294 -0.1075  0.0880
    6MOL    C26 9929  -2.299   3.021   4.593 -0.7523 -0.5799  0.4208
    6MOL     O3 9930  -2.332   2.920   4.648 -0.1247  0.2729 -0.4492
    6MOL    C27 9931  -0.982   3.768   4.703 -0.6296  0.2953 -0.9624
    6MOL    C28 9932  -1.029   3.743   4.574 -0.2414 -0.7392  0.3729
    6MOL    C29 9933  -0.900   3.667   4.765 -0.0261  1.2553  0.1471
    6MOL    C30 9934  -0.992   3.624   4.506 -0.2826  0.5841  0.1168
    6MOL    C31 9935  -0.859   3.551   4.694 -0.0799  0.1880  0.1054
    6MOL    C32 9936  -0.902   3.534   4.564 -0.0504  0.4183  0.3424
    6MOL    C33 9937  -0.829   3.450   4.481 -0.2247  1.1264 -1.1281
    6MOL     N5 9938  -0.734   3.485   4.389  0.6273  0.2534 -0.5539
    6MOL     N6 9939  -0.875   3.321   4.449  0.6655  0.4424 -0.2885
    6MOL    C34 9940  -0.733   3.381   4.302 -0.3586  0.1286  0.2159
    6MOL    C35 9941  -0.814   3.283   4.336 -0.4548 -0.3219  0.7203
    6MOL    C36 9942  -0.976   3.238   4.524  0.3113 -0.5969  0.1421
    6MOL     H1 9943  -0.914   3.155   4.558  1.7609  0.1669 -1.7410
    6MOL     H2 9944  -1.064   3.203   4.457 -1.1056 -2.2024 -0.7195
    6MOL     H3 9945  -1.030   3.297   4.600 -0.0830 -1.2451  0.6125
    6MOL    C37 9946  -0.709   3.620   4.356  0.2986 -0.2118 -0.7759
    6MOL    C38 9947  -0.759   3.681   4.244  0.2060  0.3772 -1.2618
    6MOL    C39 9948  -0.778   3.821   4.246 -0.4422 -0.1331  0.3519
    6MOL    C40 9949  -0.737   3.903   4.349 -0.8707 -0.4283 -0.0997
    6MOL    C41 9950  -0.658   3.839   4.451  0.5352  0.0823 -0.3582
    6MOL    C42 9951  -0.650   3.698   4.463  0.1659 -0.2007  0.4205
    6MOL    C43 9952  -0.841   3.149   4.263 -0.2319  0.1171 -0.0899
    6MOL     F7 9953  -0.852   3.037   4.346  0.4869 -0.2947  0.0494
    6MOL     F8 9954  -0.756   3.135   4.164 -0.5387  0.4805  0.4780
    6MOL     F9 9955  -0.961   3.161   4.206 -0.0210  0.0575  0.4578
    6MOL    C44 9956  -1.109   4.096   4.734  0.4277  0.6926 -0.3994
    6MOL    C45 9957  -0.982   4.123   4.751  0.1710  1.0599 -0.3617
    6MOL    C46 9958  -0.906   4.253   4.727 -0.3485 -0.5858  0.2535
    6MOL    F10 9959  -0.813   4.238   4.629 -0.0924  0.3680 -0.1170
    6MOL    F11 9960  -0.995   4.344   4.684 -0.1099  1.0458 -0.4512
    6MOL     H4 9961  -1.178   4.175   4.709  1.2993  1.1953  0.8574
    6MOL     H5 9962  -1.194   3.694   4.730  3.1230 -1.1283 -1.6122
    6MOL     H6 9963  -1.422   3.586   4.717 -0.1731 -3.4518  0.3527
    6MOL     H7 9964  -1.384   4.077   4.683 -3.2713 -2.1315  1.8649
    6MOL     H8 9965  -1.605   3.989   4.714  3.0618  0.1378 -2.0399
    6MOL     H9 9966  -2.046   3.758   4.579  2.0095 -0.2169 -2.2738
    6MOL    H10 9967  -2.139   3.459   4.882  1.9095  0.9662 -0.2867
    6MOL    H11 9968  -1.899   3.431   4.925  1.8301 -0.6472  0.1655
    6MOL    H12 9969  -2.359   3.404   4.873  1.2520  1.6810  0.4607
    6MOL    H13 9970  -2.195   3.426   4.467 -2.5272  0.7667  0.7754
    6MOL    H14 9971  -2.344   3.157   4.855 -0.2139 -0.7911 -1.3161
    6MOL     O4 9972  -2.225   3.191   4.304  0.0144 -0.2819 -0.3725
    6MOL    H15 9973  -1.091   3.809   4.525 -2.2567 -1.4293 -0.8415
    6MOL    H16 9974  -1.037   3.611   4.413 -1.0100  1.3348 -0.2458
    6MOL    H17 9975  -0.883   3.682   4.871 -0.0216  1.7192  0.1842
    6MOL    H18 9976  -0.839   3.858   4.163  3.2563  0.2835 -0.7214
    6MOL    H19 9977  -0.792   3.626   4.154 -0.6051  1.3540  1.8392
    6MOL    H20 9978  -0.625   3.895   4.531 -0.6933 -0.0975  1.0629
    6MOL    H21 9979  -0.606   3.654   4.555 -0.0627 -0.0127  1.8183
    6MOL    H22 9980  -0.671   3.379   4.214 -0.4482 -0.3217 -2.1564
    6MOL    H23 9981  -0.792   3.477   4.737 -2.5167 -1.7051 -2.0577
    6MOL    F12 9982  -0.848   4.281   4.845 -0.6162  0.2550 -0.2592
    6MOL    C47 9983  -0.769   3.981   4.748  0.5099  0.3197  0.5302
    6MOL    H24 9984  -0.720   4.024   4.835 -2.0217  1.0699  1.8820
    6MOL    H25 9985  -0.735   4.032   4.660  0.6066  0.8617 -0.4191
    6MOL    H26 9986  -0.748   3.874   4.746 -2.9186 -1.3290  0.4709
    6MOL     N1 9987  -1.928   3.255   4.214 -0.4102 -0.2457  0.1267
    6MOL     N2 9988  -1.944   3.328   3.997  0.0391 -0.5734  0.3831
    6MOL     C1 9989  -1.947   3.220   4.078 -0.0431 -0.5737  0.5379
    6MOL     C2 9990  -1.864   3.341   3.881  0.1718 -0.5861  0.6926
    6MOL     C3 9991  -1.732   3.291   3.891  0.3279 -0.3591 -0.1819
    6MOL     C4 9992  -1.646   3.290   3.779 -0.8208  0.1535  0.3618
    6MOL     C5 9993  -1.692   3.330   3.654 -0.5012 -0.9102  0.4727
    6MOL     C6 9994  -1.825   3.376   3.642 -0.0342  0.2956  0.4132
    6MOL     C7 9995  -1.911   3.379   3.752 -0.5859  0.2273  0.0845
    6MOL     N3 9996  -1.619   3.299   3.540 -0.0629 -0.1439 -0.6626
    6MOL     C8 9997  -1.664   3.218   3.436  0.3824 -0.6893 -0.0017
    6MOL     C9 9998  -1.566   3.228   3.328 -0.0078  0.4756  0.3896
    6MOL    C10 9999  -1.474   3.328   3.361  0.5531  0.8859  0.4860
    6MOL    C1110000  -1.505   3.366   3.500 -0.1305 -0.4497 -1.1205
    6MOL     O110001  -1.433   3.438   3.567 -0.5301  0.2160  0.2805
    6MOL    C1210002  -1.565   3.175   3.204  0.8792  0.1490  0.0939
    6MOL    C1310003  -1.462   3.213   3.114  0.4403 -0.3345 -0.0617
    6MOL    C1410004  -1.365   3.303   3.158  0.1485 -0.2137  0.4481
    6MOL    C1510005  -1.368   3.363   3.276 -0.1204 -0.6567  0.8177
    6MOL    C1610006  -1.309   3.116   2.933 -0.7219  0.3656  0.4918
    6MOL    C1710007  -1.248   3.152   2.807  0.4172  0.9389 -1.2805
    6MOL    C1810008  -1.117   3.121   2.777 -0.6422  0.6658  0.0363
    6MOL    C1910009  -1.227   3.046   3.027 -0.1517  0.0098  0.0655
    6MOL    C2010010  -1.042   3.055   2.869  0.0654 -0.3187 -0.7942
    6MOL    C2110011  -1.091   3.015   2.994  0.1855 -0.2573 -0.1795
    6MOL    C2210012  -1.456   3.149   2.974 -0.3969  0.3143 -0.6287
    6MOL    C2310013  -1.536   3.018   2.951 -0.4204 -0.8407 -0.9309
    6MOL     F110014  -1.503   2.961   2.831  0.1516  0.1325 -0.1222
    6MOL     F210015  -1.668   3.044   2.961 -0.3124  0.1201 -0.7418
    6MOL     F310016  -1.502   2.928   3.046  0.0265 -0.1099 -0.2156
    6MOL    C2410017  -1.507   3.260   2.878  0.0478  0.0678  0.4397
    6MOL     F410018  -1.623   3.314   2.927  0.5968  0.7041 -0.4580
    6MOL     F510019  -1.538   3.215   2.754  0.0699  0.1122  0.0000
    6MOL     F610020  -1.422   3.365   2.860 -0.0252 -0.0773 -0.4617
    6MOL     O210021  -1.761   3.147   3.439 -0.2468  0.1179 -0.0572
    6MOL    C2510022  -1.021   3.150   2.660 -0.7736 -0.6708 -0.0451
    6MOL     N410023  -0.896   3.107   2.701 -0.2007  0.5416 -0.3070
    6MOL    C2610024  -0.902   3.054   2.826  0.1718  0.3005 -0.2266
    6MOL     O310025  -0.815   2.997   2.882  0.1172 -0.0800  0.3557
    6MOL    C2710026  -1.963   3.092   4.030 -0.0379 -0.1336 -0.2221
    6MOL    C2810027  -1.859   2.999   4.022  0.2765  0.4676  0.4668
    6MOL    C2910028  -2.095   3.050   4.005  0.0076 -0.5102  0.4741
    6MOL    C3010029  -1.894   2.863   3.999 -0.3653  0.2230 -0.7166
    6MOL    C3110030  -2.127   2.920   3.976  0.3637 -0.6454 -0.2105
    6MOL    C3210031  -2.021   2.825   3.966  0.0393 -1.2710  0.3128
    6MOL    C3310032  -2.053   2.687   3.980  0.5601  0.1326 -0.1893
    6MOL     N510033  -2.123   2.641   4.096  0.4313  0.7556  0.0772
    6MOL     N610034  -1.966   2.577   3.947 -0.0014  0.2908 -0.0446
    6MOL    C3410035  -2.094   2.507   4.120 -0.6624 -0.2337 -0.7603
    6MOL    C3510036  -1.990   2.474   4.047  0.0082 -0.8529 -0.6062
    6MOL    C3610037  -1.967   2.533   3.810 -0.2425 -0.2798  0.1364
    6MOL     H110038  -1.987   2.609   3.736  1.9399 -0.5829  1.5735
    6MOL     H210039  -2.036   2.450   3.806 -1.0926  2.6000  1.5053
    6MOL     H310040  -1.866   2.494   3.791  0.6341  0.4107 -1.0323
    6MOL    C3710041  -2.165   2.720   4.196  0.2406  0.0534 -0.8571
    6MOL    C3810042  -2.068   2.789   4.266  0.0138 -0.3347 -0.5322
    6MOL    C3910043  -2.103   2.896   4.349  0.1450 -0.0163  0.0559
    6MOL    C4010044  -2.232   2.919   4.373 -0.5504  0.7387  0.5743
    6MOL    C4110045  -2.337   2.842   4.321 -0.2399 -0.0069  0.0879
    6MOL    C4210046  -2.304   2.746   4.221 -0.3470 -0.4297 -0.0510
    6MOL    C4310047  -1.904   2.355   4.070 -0.1128 -0.1103  0.1221
    6MOL     F710048  -1.774   2.343   4.024 -0.1790  0.3954  0.0205
    6MOL     F810049  -1.973   2.251   4.025 -0.4735  0.4110  0.1194
    6MOL     F910050  -1.892   2.328   4.207 -0.3208  0.2648  0.7093
    6MOL    C4410051  -1.948   3.442   4.087  0.7747  0.2213  0.0672
    6MOL    C4510052  -1.927   3.395   4.213  1.5349 -0.2043  0.2919
    6MOL    C4610053  -1.886   3.477   4.335  0.0972  0.1631 -0.3738
    6MOL    F1010054  -1.746   3.472   4.354  0.3651  0.3899 -0.1357
    6MOL    F1110055  -1.922   3.605   4.332  0.4714  0.5328  0.3231
    6MOL     H410056  -1.927   3.542   4.043  0.3489  1.0378  0.5183
    6MOL     H510057  -1.711   3.237   3.984  0.5738  1.6707 -1.3795
    6MOL     H610058  -1.551   3.239   3.783  1.0526 -0.2553 -1.3965
    6MOL     H710059  -2.015   3.385   3.727  0.1414 -0.2696 -0.8501
    6MOL     H810060  -1.871   3.386   3.545 -0.1178 -1.9081  0.0024
    6MOL     H910061  -1.638   3.101   3.177 -1.6422  0.7609 -4.0936
    6MOL    H1010062  -1.295   3.337   3.086 -2.9706  3.6045 -1.3236
    6MOL    H1110063  -1.289   3.436   3.303  0.6207  0.3201  0.9555
    6MOL    H1210064  -1.264   3.029   3.128  1.4386  1.4230  0.9851
    6MOL    H1310065  -1.306   3.208   2.733  0.1129 -1.5422 -0.3077
    6MOL    H1410066  -1.019   2.979   3.069  2.0198  0.0641 -3.0714
    6MOL     O410067  -1.040   3.192   2.547 -0.1744  0.2906  0.3011
    6MOL    H1510068  -1.759   3.036   4.044  1.7735 -0.6260 -0.6679
    6MOL    H1610069  -1.819   2.787   4.003 -1.2525 -0.3117  0.3857
    6MOL    H1710070  -2.172   3.128   4.014  0.2002 -1.6771  0.4835
    6MOL    H1810071  -2.022   2.970   4.390  2.4533  0.3235  2.3033
    6MOL    H1910072  -1.963   2.763   4.251  1.4487 -1.8229 -1.4151
    6MOL    H2010073  -2.434   2.871   4.346 -0.2879 -0.7894  2.4452
    6MOL    H2110074  -2.379   2.691   4.172 -2.1603 -1.0149 -1.6539
    6MOL    H2210075  -2.137   2.458   4.200 -0.4423 -1.1745 -1.4092
    6MOL    H2310076  -2.236   2.894   3.960 -3.3255 -1.6009  0.5013
    6MOL    F1210077  -1.930   3.422   4.454  0.1965  0.2537  0.2243
    6MOL    C4710078  -1.833   3.182   4.301  0.0803 -0.4046 -0.8877
    6MOL    H2410079  -1.876   3.155   4.396  4.2546  1.3013 -2.0261
    6MOL    H2510080  -1.755   3.257   4.316 -2.1684  0.6116  0.8453
    6MOL    H2610081  -1.793   3.095   4.254  2.2316  2.0255  0.6188
    6MOL     N110082  -0.756   2.599   2.023  1.0030 -0.2651 -0.4947
    6MOL     N210083  -0.684   2.533   2.228 -0.0372 -0.4260 -0.7545
    6MOL     C110084  -0.674   2.641   2.133 -0.1693  0.3523 -0.2905
    6MOL     C210085  -0.627   2.523   2.355  0.3214  0.1232  0.4521
    6MOL     C310086  -0.492   2.556   2.365  0.4505  0.3843 -0.5304
    6MOL     C410087  -0.420   2.532   2.486 -0.0218  0.2709  0.3379
    6MOL     C510088  -0.486   2.479   2.591  0.3081  0.5808  0.3538
    6MOL     C610089  -0.622   2.448   2.580  0.3959 -0.8002 -0.3949
    6MOL     C710090  -0.697   2.466   2.463  0.0411  0.0672  0.2510
    6MOL     N310091  -0.422   2.451   2.714  0.0210 -0.0153  0.0713
    6MOL     C810092  -0.320   2.356   2.733  0.0108  0.3433  0.2480
    6MOL     C910093  -0.281   2.363   2.879 -0.6982 -0.3938  0.3176
    6MOL    C1010094  -0.354   2.467   2.940 -0.4213 -0.3422 -0.4973
    6MOL    C1110095  -0.444   2.523   2.832 -0.2823  0.4179  0.3719
    6MOL     O110096  -0.521   2.616   2.840 -0.3069 -0.3326  0.1933
    6MOL    C1210097  -0.175   2.303   2.950 -0.0107 -0.0184 -0.2330
    6MOL    C1310098  -0.141   2.348   3.086  0.4981  0.2683  0.2120
    6MOL    C1410099  -0.224   2.448   3.147 -0.2414 -0.0597  0.1225
    6MOL    C1510100  -0.334   2.502   3.075 -0.1055  0.2112 -0.1573
    6MOL    C1610101   0.090   2.271   3.037  0.3720  0.0553 -0.1321
    6MOL    C1710102   0.104   2.370   2.932 -0.5056  0.1889  0.0018
    6MOL    C1810103   0.205   2.354   2.838  0.4699 -0.4041 -0.2195
    6MOL    C1910104   0.184   2.166   3.039 -0.2016  0.5366  0.6085
    6MOL    C2010105   0.279   2.241   2.832  0.1769 -0.7195 -0.1569
    6MOL    C2110106   0.278   2.148   2.936  0.5305  0.2365 -0.5967
    6MOL    C2210107  -0.009   2.306   3.155 -0.6702 -0.5447  0.3455
    6MOL    C2310108   0.060   2.420   3.235  0.1873  0.0614 -0.4690
    6MOL     F110109   0.186   2.376   3.269  0.7549 -0.1800  0.5269
    6MOL     F210110  -0.001   2.460   3.342  0.2671  0.6774 -0.1820
    6MOL     F310111   0.065   2.532   3.162  0.0314  0.3522 -0.0844
    6MOL    C2410112  -0.054   2.186   3.244  0.3933 -0.3038 -0.6850
    6MOL     F410113  -0.107   2.092   3.161 -0.0964  0.1358 -0.1092
    6MOL     F510114  -0.154   2.219   3.333 -0.2907 -0.1604 -0.4466
    6MOL     F610115   0.055   2.132   3.305  0.0144  0.1429  0.6522
    6MOL     O210116  -0.270   2.282   2.650 -0.3602  0.0785 -0.2545
    6MOL    C2510117   0.248   2.452   2.734 -0.6189  0.2692  0.8216
    6MOL     N410118   0.331   2.374   2.654 -0.1894 -0.7537 -0.0597
    6MOL    C2610119   0.358   2.250   2.707 -1.0400  0.5099  0.1316
    6MOL     O310120   0.428   2.169   2.654 -0.1549 -0.3703 -0.2047
    6MOL    C2710121  -0.608   2.764   2.137  0.6439  0.2620  0.4771
    6MOL    C2810122  -0.472   2.763   2.141  0.1059  0.4484  0.1348
    6MOL    C2910123  -0.684   2.884   2.147 -0.2107  0.2078 -0.1814
    6MOL    C3010124  -0.403   2.879   2.173  0.7121 -0.1144 -0.5613
    6MOL    C3110125  -0.611   3.000   2.190  0.3995  0.2919 -0.4096
    6MOL    C3210126  -0.470   2.999   2.199 -0.1416 -0.8596  0.1270
    6MOL    C3310127  -0.409   3.115   2.245  0.0627 -0.6808 -0.4434
    6MOL     N510128  -0.451   3.191   2.363  0.4322  0.0913  0.3356
    6MOL     N610129  -0.280   3.170   2.199 -0.3582 -0.2149  0.6865
    6MOL    C3410130  -0.346   3.274   2.384 -0.3496  0.4480  0.0424
    6MOL    C3510131  -0.248   3.272   2.286 -0.1515 -0.2194 -0.3527
    6MOL    C3610132  -0.209   3.133   2.075  0.6533  0.6341  0.3786
    6MOL     H110133  -0.097   3.147   2.081 -1.7810  1.8273  1.1452
    6MOL     H210134  -0.224   3.199   1.989  2.7334 -1.4896  0.5659
    6MOL     H310135  -0.231   3.034   2.041  0.2548  0.4956  0.2676
    6MOL    C3710136  -0.552   3.169   2.455  0.2608  0.6135  0.6657
    6MOL    C3810137  -0.585   3.042   2.499 -0.2850  0.0267 -0.0038
    6MOL    C3910138  -0.702   3.019   2.576  0.6743  0.0909  0.7327
    6MOL    C4010139  -0.776   3.126   2.628 -0.3531 -0.9467  0.5042
    6MOL    C4110140  -0.751   3.254   2.576 -0.3492  0.6150 -0.1717
    6MOL    C4210141  -0.639   3.279   2.491  0.0215  0.3689  0.5357
    6MOL    C4310142  -0.121   3.349   2.274  0.3378 -0.4739 -0.4798
    6MOL     F710143  -0.021   3.281   2.217  0.7474 -0.2467 -0.1308
    6MOL     F810144  -0.073   3.398   2.391 -0.4743 -0.0119 -0.0211
    6MOL     F910145  -0.146   3.456   2.201  0.4801  0.0353 -0.5188
    6MOL    C4410146  -0.769   2.434   2.171 -0.3532  0.3024 -0.8583
    6MOL    C4510147  -0.819   2.479   2.055  0.0533  0.6212 -0.6675
    6MOL    C4610148  -0.925   2.405   1.978 -0.1049 -0.1776 -0.5592
    6MOL    F1010149  -0.946   2.288   2.032 -0.0029  0.3877  0.4630
    6MOL    F1110150  -1.043   2.479   1.972 -0.2059  0.2204  0.5204
    6MOL     H410151  -0.801   2.347   2.225 -2.8104 -0.7456  0.5753
    6MOL     H510152  -0.433   2.578   2.280 -2.3933 -1.2330  2.7223
    6MOL     H610153  -0.305   2.553   2.493  1.6163 -1.0414  0.5727
    6MOL     H710154  -0.796   2.434   2.441 -1.6776 -0.9230 -1.1807
    6MOL     H810155  -0.675   2.423   2.674  1.2547 -0.1239  1.0003
    6MOL     H910156  -0.115   2.235   2.897  0.0845  1.1902 -0.7557
    6MOL    H1010157  -0.210   2.488   3.249  0.2867  1.0804  1.1591
    6MOL    H1110158  -0.386   2.583   3.129  0.0126  0.8398  0.8464
    6MOL    H1210159   0.177   2.097   3.117 -0.2043  3.4643  1.8413
    6MOL    H1310160   0.043   2.456   2.931 -0.6720 -0.5238  0.3121
    6MOL    H1410161   0.347   2.061   2.935  0.8012 -1.4848 -0.1120
    6MOL     O410162   0.223   2.570   2.717 -0.4626  0.2176  0.1544
    6MOL    H1510163  -0.425   2.669   2.114  0.4441 -1.6939  0.6229
    6MOL    H1610164  -0.295   2.874   2.184  2.5665 -1.1833 -1.5200
    6MOL    H1710165  -0.797   2.887   2.149  1.0464 -0.5762 -1.7322
    6MOL    H1810166  -0.731   2.917   2.587 -1.9138  0.2074 -0.0830
    6MOL    H1910167  -0.522   2.964   2.456  1.5098 -1.4844 -0.4453
    6MOL    H2010168  -0.815   3.331   2.602  1.3067  0.6226 -3.1512
    6MOL    H2110169  -0.633   3.380   2.441 -0.7303  1.2715 -2.0081
    6MOL    H2210170  -0.348   3.333   2.482  0.3784  2.3730 -2.0885
    6MOL    H2310171  -0.679   3.087   2.205 -1.0254 -0.1130  1.3357
    6MOL    F1210172  -0.879   2.375   1.852 -0.2894 -0.3546 -0.3087
    6MOL    C4710173  -0.765   2.674   1.894  0.0682 -0.2110 -0.9391
    6MOL    H2410174  -0.870   2.703   1.866 -0.6300 -2.7777 -2.9558
    6MOL    H2510175  -0.735   2.610   1.806  0.6275 -0.2566 -0.3438
    6MOL    H2610176  -0.692   2.754   1.913  0.4900 -1.5278  0.1004
    6MOL     N110177   0.776   2.290   2.710  0.8854  0.1238  0.1526
    6MOL     N210178   0.808   2.064   2.666 -0.0629 -1.2114  0.5094
    6MOL     C110179   0.789   2.200   2.602  0.1000  0.1553 -0.1244
    6MOL     C210180   0.853   1.948   2.607 -0.2115 -0.7941  0.3823
    6MOL     C310181   0.841   1.928   2.468 -0.0250 -0.0257 -0.2556
    6MOL     C410182   0.881   1.813   2.408  0.4213  0.3065  0.3476
    6MOL     C510183   0.927   1.707   2.487 -0.1567  0.4551  0.0215
    6MOL     C610184   0.935   1.715   2.628  0.2204  0.5445 -0.1377
    6MOL     C710185   0.902   1.839   2.688  0.3185 -0.2712 -0.4154
    6MOL     N310186   0.963   1.584   2.426 -0.2261  0.3776 -0.1690
    6MOL     C810187   1.072   1.508   2.461  0.0314 -0.6700 -0.0255
    6MOL     C910188   1.061   1.380   2.395  0.1611  0.3595  0.0483
    6MOL    C1010189   0.951   1.382   2.312  0.1244 -0.0142 -0.2474
    6MOL    C1110190   0.883   1.516   2.337  0.1957 -0.1115  0.4396
    6MOL     O110191   0.785   1.552   2.277  0.5466  0.0483  0.3533
    6MOL    C1210192   1.150   1.280   2.380  0.0088  0.2975  0.6486
    6MOL    C1310193   1.127   1.167   2.308  0.0014  0.3239  0.3629
    6MOL    C1410194   1.012   1.165   2.227 -0.3965  0.1189 -0.1251
    6MOL    C1510195   0.921   1.271   2.232 -0.3365 -0.0140 -0.0555
    6MOL    C1610196   1.227   1.002   2.464  0.0866  0.4926  0.4931
    6MOL    C1710197   1.099   0.988   2.535 -0.1309  0.1167  0.8255
    6MOL    C1810198   1.110   0.925   2.661  0.4631 -0.2400 -0.0836
    6MOL    C1910199   1.349   0.977   2.534  0.4406  0.1872 -0.4835
    6MOL    C2010200   1.228   0.883   2.720  0.0220  0.2476 -0.3625
    6MOL    C2110201   1.348   0.913   2.658  0.4587  0.0704 -0.5612
    6MOL    C2210202   1.228   1.052   2.319 -0.5499 -0.1289  0.0873
    6MOL    C2310203   1.178   0.922   2.238 -0.7362  0.1318  0.3252
    6MOL     F110204   1.256   0.815   2.265 -0.3667 -0.6381 -0.5937
    6MOL     F210205   1.190   0.930   2.110  0.2103  0.3692 -0.0739
    6MOL     F310206   1.055   0.877   2.257 -0.1799  0.1715  0.2474
    6MOL    C2410207   1.363   1.097   2.262 -0.2616 -0.0375  0.7797
    6MOL     F410208   1.339   1.156   2.141  0.0989 -0.0557  0.3030
    6MOL     F510209   1.440   0.986   2.237  0.3179 -0.2017 -0.2982
    6MOL     F610210   1.430   1.181   2.336  0.4819  0.0848 -0.0113
    6MOL     O210211   1.156   1.539   2.546  0.2284  0.4340  0.0642
    6MOL    C2510212   1.002   0.882   2.751  1.4010 -0.3333  0.3006
    6MOL     N410213   1.061   0.841   2.869 -0.1531  0.2216  0.2850
    6MOL    C2610214   1.194   0.822   2.855 -0.2509  0.0151  0.7431
    6MOL     O310215   1.273   0.772   2.933 -0.3222 -0.7353 -0.1618
    6MOL    C2710216   0.740   2.233   2.475 -0.5502  0.2404  0.4177
    6MOL    C2810217   0.621   2.169   2.438  0.2274  0.4782 -0.0981
    6MOL    C2910218   0.807   2.313   2.383  0.0905 -0.3478 -0.3002
    6MOL    C3010219   0.566   2.195   2.313  0.3128 -0.5845 -0.1591
    6MOL    C3110220   0.752   2.332   2.257 -0.5261  0.3656  0.2893
    6MOL    C3210221   0.633   2.275   2.217 -0.0183  0.3046 -0.0024
    6MOL    C3310222   0.562   2.335   2.118 -0.7613  0.1028  0.5470
    6MOL     N510223   0.451   2.422   2.132  0.2322 -0.6986  0.4737
    6MOL     N610224   0.591   2.337   1.981 -0.3216 -0.4421  0.3130
    6MOL    C3410225   0.404   2.459   2.003 -0.1963  0.1639 -0.6324
    6MOL    C3510226   0.488   2.416   1.915 -0.1042  0.2966 -0.2470
    6MOL    C3610227   0.698   2.258   1.916  0.0572 -0.8654 -0.3311
    6MOL     H110228   0.648   2.209   1.823  1.1880 -1.9014 -0.1725
    6MOL     H210229   0.750   2.190   1.989  1.2590  0.1031  0.3553
    6MOL     H310230   0.783   2.319   1.887  0.8744  0.8299 -0.2118
    6MOL    C3710231   0.398   2.451   2.253 -0.9166  0.2889 -0.7466
    6MOL    C3810232   0.475   2.527   2.348  0.1566 -0.2376  0.1854
    6MOL    C3910233   0.443   2.514   2.482 -0.1648 -0.2757 -1.1200
    6MOL    C4010234   0.356   2.410   2.523 -0.8222  0.1544 -0.0769
    6MOL    C4110235   0.277   2.346   2.428 -0.1691 -0.0258  0.1450
    6MOL    C4210236   0.296   2.366   2.296  0.2809 -0.1403  0.2261
    6MOL    C4310237   0.471   2.430   1.767  0.8949 -0.2500  0.0398
    6MOL     F710238   0.539   2.336   1.692  0.8855 -0.3824 -0.3452
    6MOL     F810239   0.521   2.552   1.723 -0.0024  0.6238  0.0531
    6MOL     F910240   0.340   2.436   1.728 -0.0392 -0.4043  0.5837
    6MOL    C4410241   0.760   2.083   2.794  0.3285  0.7272  0.4826
    6MOL    C4510242   0.738   2.209   2.820  0.1473 -0.1320 -0.8610
    6MOL    C4610243   0.674   2.269   2.944  0.5117 -0.1634  0.6692
    6MOL    F1010244   0.556   2.325   2.920 -0.2877 -0.8172  0.3636
    6MOL    F1110245   0.660   2.174   3.046  0.1772  0.1566 -0.0371
    6MOL     H410246   0.739   1.999   2.855  3.0733  1.3157 -0.4214
    6MOL     H510247   0.802   2.002   2.408  0.3861 -0.8601 -0.4350
    6MOL     H610248   0.861   1.800   2.298  1.3926 -1.4084  1.0209
    6MOL     H710249   0.903   1.850   2.803 -1.3259  1.7203  0.2060
    6MOL     H810250   0.961   1.631   2.690 -0.7268  0.5960 -0.1244
    6MOL     H910251   1.234   1.286   2.444 -1.9144  0.0160  1.6865
    6MOL    H1010252   0.990   1.085   2.153 -0.7509  0.2116 -1.6770
    6MOL    H1110253   0.835   1.265   2.166 -1.1266 -0.5911 -0.3020
    6MOL    H1210254   1.437   0.996   2.486 -1.6477 -1.9804 -0.3779
    6MOL    H1310255   1.005   1.017   2.493  0.4076 -5.9979  1.3702
    6MOL    H1410256   1.444   0.884   2.700 -1.8805  1.6552  0.0528
    6MOL     O410257   0.879   0.894   2.730 -0.3359  0.1271  0.3584
    6MOL    H1510258   0.578   2.090   2.502 -1.7425  1.0539 -0.7872
    6MOL    H1610259   0.479   2.135   2.285  0.4758  0.3110 -0.9700
    6MOL    H1710260   0.895   2.364   2.409 -2.7904  1.1079  0.7058
    6MOL    H1810261   0.490   2.584   2.559  0.9508  0.4775 -0.0476
    6MOL    H1910262   0.557   2.595   2.320 -0.7393  2.1620  0.6976
    6MOL    H2010263   0.206   2.263   2.449  1.6474 -0.0177  0.3326
    6MOL    H2110264   0.240   2.302   2.232 -2.2253  1.0226  2.2650
    6MOL    H2210265   0.316   2.530   1.987 -1.9616  0.9010  0.0311
    6MOL    H2310266   0.806   2.389   2.187  0.8135  1.2625  0.8062
    6MOL    F1210267   0.753   2.368   2.991 -0.2835  0.1383 -0.1329
    6MOL    C4710268   0.703   2.418   2.694  0.2744  0.4720 -0.2871
    6MOL    H2410269   0.750   2.501   2.756 -0.2679 -1.4945  0.1286
    6MOL    H2510270   0.597   2.411   2.729  0.1989 -3.2451  1.8327
    6MOL    H2610271   0.712   2.445   2.593  1.0853  1.1744 -1.8550
    6MOL     N110272   0.900   1.488   3.360 -0.2803 -0.0347  0.3020
    6MOL     N210273   0.688   1.505   3.435 -0.4028 -0.0063 -0.6337
    6MOL     C110274   0.792   1.413   3.406  0.2386 -0.1959  0.9782
    6MOL     C210275   0.551   1.473   3.447 -0.2471 -0.6054 -0.0719
    6MOL     C310276   0.507   1.400   3.338 -0.0611 -0.4222 -0.9266
    6MOL     C410277   0.384   1.336   3.353 -1.2722  0.0576  0.1218
    6MOL     C510278   0.307   1.367   3.467 -0.4549  0.6716  0.1433
    6MOL     C610279   0.354   1.442   3.573  0.6203 -0.0150 -0.8902
    6MOL     C710280   0.477   1.501   3.566  0.0888 -0.0401  0.5088
    6MOL     N310281   0.185   1.295   3.478  0.0195 -0.2867 -0.1556
    6MOL     C810282   0.170   1.171   3.538 -0.5320 -0.4052  0.6304
    6MOL     C910283   0.019   1.141   3.523 -0.1072 -0.3486 -0.4092
    6MOL    C1010284  -0.041   1.248   3.453 -0.3626  0.3560 -0.2513
    6MOL    C1110285   0.068   1.349   3.424 -0.0525  0.8453  0.2751
    6MOL     O110286   0.066   1.459   3.369  0.1823 -0.8001  0.7321
    6MOL    C1210287  -0.059   1.040   3.572  0.0801 -0.4048 -0.6435
    6MOL    C1310288  -0.198   1.040   3.552 -0.0364 -0.0613 -0.1684
    6MOL    C1410289  -0.259   1.142   3.478 -0.3485 -0.7537 -0.6342
    6MOL    C1510290  -0.184   1.248   3.432  0.2021 -0.5748 -0.2865
    6MOL    C1610291  -0.420   0.994   3.644  0.3670  0.7626  0.6275
    6MOL    C1710292  -0.547   0.957   3.588 -0.1680  0.2449 -0.5130
    6MOL    C1810293  -0.665   1.026   3.623  0.1391  0.2219  0.1753
    6MOL    C1910294  -0.413   1.112   3.727  0.2133  0.4689  0.7156
    6MOL    C2010295  -0.653   1.134   3.711 -0.2875 -0.0239 -0.2326
    6MOL    C2110296  -0.535   1.176   3.763 -0.2823 -0.8555  0.5737
    6MOL    C2210297  -0.285   0.927   3.602 -0.3141  0.4541  0.2962
    6MOL    C2310298  -0.290   0.825   3.485  0.1271  0.2313 -0.4564
    6MOL     F110299  -0.161   0.781   3.454  0.7736  0.1427 -0.0519
    6MOL     F210300  -0.343   0.868   3.367 -0.1078 -0.2953  0.3353
    6MOL     F310301  -0.368   0.715   3.515 -0.3984  0.2439  0.3429
    6MOL    C2410302  -0.245   0.861   3.738  0.1091  0.2044  0.7254
    6MOL     F410303  -0.354   0.796   3.787 -0.3107 -0.3829  0.3240
    6MOL     F510304  -0.197   0.943   3.832  0.2497 -0.3345 -0.0298
    6MOL     F610305  -0.143   0.774   3.724 -0.0962 -0.1353 -0.0068
    6MOL     O210306   0.259   1.107   3.591  0.1080  0.1884 -0.3995
    6MOL    C2510307  -0.800   1.003   3.597  0.0109  0.1951 -0.1929
    6MOL     N410308  -0.871   1.095   3.677  0.1415  0.2491  0.1208
    6MOL    C2610309  -0.789   1.182   3.740 -0.6910  0.6337  0.9092
    6MOL     O310310  -0.830   1.279   3.803  0.3326  0.2084 -0.0773
    6MOL    C2710311   0.783   1.278   3.416 -0.5958 -0.1615  0.4059
    6MOL    C2810312   0.764   1.207   3.297  0.3123 -0.5928  0.0446
    6MOL    C2910313   0.757   1.226   3.542 -0.2216 -0.0803 -0.2554
    6MOL    C3010314   0.723   1.077   3.303 -1.2236  0.6880  0.5707
    6MOL    C3110315   0.723   1.089   3.547 -0.6864 -0.1147 -0.0674
    6MOL    C3210316   0.717   1.012   3.430 -0.0058 -0.0514  0.6002
    6MOL    C3310317   0.697   0.873   3.431 -0.3886  1.1638  0.3327
    6MOL     N510318   0.760   0.778   3.335 -0.1053  0.2189  0.1838
    6MOL     N610319   0.670   0.799   3.549  0.0508  0.0510  0.1417
    6MOL    C3410320   0.795   0.672   3.413 -0.1875 -0.3518 -0.2435
    6MOL    C3510321   0.748   0.683   3.537 -0.3102 -0.2080 -0.0184
    6MOL    C3610322   0.539   0.795   3.612  0.1929  0.3193 -0.2253
    6MOL     H110323   0.503   0.687   3.632 -1.5152 -1.0445 -2.4696
    6MOL     H210324   0.472   0.876   3.566  0.8872  0.7951 -0.4708
    6MOL     H310325   0.550   0.847   3.710 -0.7338  1.0963  1.2865
    6MOL    C3710326   0.834   0.801   3.221  0.6672 -0.1242 -0.0853
    6MOL    C3810327   0.812   0.714   3.107  0.2755 -1.1807  0.1450
    6MOL    C3910328   0.893   0.727   2.999  0.1028  0.2651  0.5098
    6MOL    C4010329   0.994   0.822   2.988  0.7964 -0.1202 -0.0201
    6MOL    C4110330   1.018   0.911   3.101 -0.0089  0.7067 -0.2616
    6MOL    C4210331   0.947   0.894   3.218 -0.3361 -0.5929 -0.3304
    6MOL    C4310332   0.778   0.608   3.658  0.2432 -0.4573 -0.0734
    6MOL     F710333   0.675   0.539   3.715 -0.0602 -0.2679  0.3643
    6MOL     F810334   0.823   0.694   3.751 -0.3759 -0.7239 -0.3970
    6MOL     F910335   0.884   0.524   3.635  0.3491  0.3705 -0.5674
    6MOL    C4410336   0.737   1.628   3.392  0.1126  0.2861 -0.4922
    6MOL    C4510337   0.860   1.621   3.352  0.3121 -0.2918 -0.2654
    6MOL    C4610338   0.945   1.735   3.310 -0.4852  0.2949  0.0064
    6MOL    F1010339   1.067   1.699   3.274  0.0253 -0.1748 -0.6127
    6MOL    F1110340   0.891   1.810   3.205 -0.5360 -0.2896  0.2963
    6MOL     H410341   0.672   1.718   3.393  0.0233  1.5861  0.2563
    6MOL     H510342   0.570   1.375   3.262  1.7963 -0.4496 -0.0244
    6MOL     H610343   0.353   1.257   3.291  0.5724 -0.5520 -1.1922
    6MOL     H710344   0.531   1.551   3.646 -1.8087 -1.4870  0.1880
    6MOL     H810345   0.293   1.457   3.659  1.3571 -2.6710  0.6104
    6MOL     H910346  -0.006   0.960   3.626  0.3336 -1.0479  1.5671
    6MOL    H1010347  -0.364   1.138   3.449 -0.4143  1.0899  0.1247
    6MOL    H1110348  -0.233   1.324   3.385 -0.3914  0.1260  0.5244
    6MOL    H1210349  -0.313   1.144   3.760 -0.3458 -0.8594 -1.0455
    6MOL    H1310350  -0.562   0.873   3.516 -1.7070 -2.1388  2.3395
    6MOL    H1410351  -0.532   1.269   3.817 -2.7672  0.8369 -0.6917
    6MOL     O410352  -0.841   0.918   3.522  0.4999  0.2273 -0.7150
    6MOL    H1510353   0.779   1.260   3.200  1.0265 -0.7923  0.0317
    6MOL    H1610354   0.717   1.022   3.208  0.1066 -1.0685  1.0928
    6MOL    H1710355   0.784   1.283   3.626 -0.4050 -0.4223 -0.6996
    6MOL    H1810356   0.878   0.658   2.916 -3.5133 -0.6087 -0.4163
    6MOL    H1910357   0.741   0.639   3.101  0.1013  3.4367  1.1463
    6MOL    H2010358   1.102   0.977   3.095 -0.7094 -0.3491  0.3444
    6MOL    H2110359   0.967   0.965   3.303  1.5070 -0.6421  0.1846
    6MOL    H2210360   0.872   0.606   3.378 -0.9288 -1.7099  1.8802
    6MOL    H2310361   0.708   1.039   3.641 -0.4945  1.4250  3.0523
    6MOL    F1210362   0.975   1.822   3.403  0.2443 -0.2438 -0.0604
    6MOL    C4710363   1.018   1.426   3.302  0.6412 -0.5785 -0.1485
    6MOL    H2410364   1.102   1.433   3.373  0.7696  1.3956  0.1668
    6MOL    H2510365   1.050   1.486   3.209  2.9384  1.4516  2.7762
    6MOL    H2610366   0.989   1.321   3.281  1.5052 -1.7865  1.0264
    6MOL     N110367  -0.876   1.282   4.146  0.5501 -0.9346  0.3374
    6MOL     N210368  -0.882   1.497   4.199  0.0284  0.2753  0.2880
    6MOL     C110369  -0.934   1.403   4.105  0.4722 -0.1641  0.1757
    6MOL     C210370  -0.866   1.630   4.169  0.7783 -0.6303 -0.5554
    6MOL     C310371  -0.831   1.674   4.037  0.3241 -0.7850 -0.6243
    6MOL     C410372  -0.805   1.812   4.013  0.3545  0.1438  0.6880
    6MOL     C510373  -0.820   1.906   4.120 -0.1904 -0.0889  0.5820
    6MOL     C610374  -0.862   1.864   4.247 -0.0132  0.0175 -0.0620
    6MOL     C710375  -0.889   1.730   4.269 -0.3511 -0.1128 -0.4058
    6MOL     N310376  -0.779   2.043   4.103 -0.7793  0.2738 -0.2762
    6MOL     C810377  -0.855   2.149   4.140  0.2311  0.1536  0.1332
    6MOL     C910378  -0.778   2.268   4.111 -0.4204  0.7162  0.2567
    6MOL    C1010379  -0.657   2.230   4.060  0.1220  0.9194  0.2346
    6MOL    C1110380  -0.654   2.083   4.052 -0.6736  0.2150  0.1650
    6MOL     O110381  -0.564   2.016   4.017  0.5646 -0.4901  0.2414
    6MOL    C1210382  -0.808   2.402   4.127 -0.0459 -0.3483  0.3667
    6MOL    C1310383  -0.709   2.501   4.107 -0.3795  0.0778  0.4760
    6MOL    C1410384  -0.581   2.459   4.063 -0.5359  0.7258  0.0151
    6MOL    C1510385  -0.554   2.321   4.039 -0.0921  0.2153  0.2761
    6MOL    C1610386  -0.837   2.669   4.246 -0.1136 -0.4026 -0.1573
    6MOL    C1710387  -0.952   2.760   4.258 -0.1634  0.7863 -0.2767
    6MOL    C1810388  -0.995   2.792   4.392  0.2977  0.0524  0.2117
    6MOL    C1910389  -0.786   2.607   4.363  0.2372 -0.6690  0.4810
    6MOL    C2010390  -0.941   2.727   4.504 -0.3076  0.0553 -0.4807
    6MOL    C2110391  -0.841   2.631   4.490  0.5544 -0.4212  0.2025
    6MOL    C2210392  -0.754   2.651   4.116 -0.4053  0.3995  0.1686
    6MOL    C2310393  -0.642   2.762   4.128 -0.9142 -0.1632  0.9726
    6MOL     F110394  -0.619   2.829   4.008 -0.4070 -0.0781  0.1900
    6MOL     F210395  -0.523   2.725   4.181 -0.0434 -0.6096  0.3943
    6MOL     F310396  -0.671   2.864   4.211  0.2942  0.7737 -0.0865
    6MOL    C2410397  -0.830   2.667   3.986  0.7556 -0.4661  0.0195
    6MOL     F410398  -0.937   2.591   3.964  0.2146 -0.1472  0.0117
    6MOL     F510399  -0.747   2.648   3.879  0.1885  0.3293  0.1545
    6MOL     F610400  -0.880   2.790   3.966 -0.4029 -0.5009 -0.3755
    6MOL     O210401  -0.970   2.146   4.180 -0.0925 -0.1153  0.3151
    6MOL    C2510402  -1.107   2.880   4.434  0.4485  0.0310  0.2426
    6MOL     N410403  -1.111   2.872   4.573 -0.2576 -0.3891  0.2076
    6MOL    C2610404  -1.023   2.776   4.619  0.2122  0.6429  0.0471
    6MOL     O310405  -1.016   2.731   4.734 -0.2302 -0.2622  0.3858
    6MOL    C2710406  -1.049   1.411   4.024  0.0403 -0.2948  0.1476
    6MOL    C2810407  -1.033   1.443   3.889  0.2361  0.1703  0.0472
    6MOL    C2910408  -1.175   1.417   4.086  0.2441  0.3729 -0.0689
    6MOL    C3010409  -1.147   1.449   3.810 -0.4028  0.3153 -0.1973
    6MOL    C3110410  -1.286   1.415   4.002  0.3442 -0.0779  0.2348
    6MOL    C3210411  -1.277   1.431   3.862  0.5851 -0.3742  0.4305
    6MOL    C3310412  -1.385   1.403   3.776  0.2480 -0.5181 -0.2626
    6MOL     N510413  -1.384   1.291   3.690 -0.1591  0.4714 -0.2863
    6MOL     N610414  -1.510   1.470   3.763 -0.1202  0.1191  1.0218
    6MOL    C3410415  -1.514   1.285   3.639 -0.4646  0.2174  0.1276
    6MOL    C3510416  -1.584   1.390   3.678  0.2839  0.1051  0.3153
    6MOL    C3610417  -1.552   1.587   3.846 -0.3663 -0.4550  0.5362
    6MOL     H110418  -1.662   1.583   3.869  1.9862 -0.1362 -0.5192
    6MOL     H210419  -1.525   1.677   3.792  1.5104  0.6373  2.5193
    6MOL     H310420  -1.499   1.590   3.949  1.6525  0.2719  3.7349
    6MOL    C3710421  -1.270   1.213   3.669  0.3739  0.5349  0.1019
    6MOL    C3810422  -1.221   1.121   3.770 -0.0706 -0.6673  0.0829
    6MOL    C3910423  -1.089   1.068   3.760 -0.0598  0.3959  0.0548
    6MOL    C4010424  -1.006   1.113   3.660 -0.5211 -0.1475 -0.0757
    6MOL    C4110425  -1.056   1.196   3.556  0.3052 -0.5114 -0.4416
    6MOL    C4210426  -1.188   1.240   3.557 -0.0576 -0.3543  0.4707
    6MOL    C4310427  -1.728   1.433   3.635  0.4621 -1.1019 -0.0302
    6MOL     F710428  -1.741   1.571   3.653  0.2764  0.0317 -0.4101
    6MOL     F810429  -1.832   1.380   3.699  0.1794  0.3833 -0.3378
    6MOL     F910430  -1.750   1.407   3.500  0.1232  0.0244  0.2837
    6MOL    C4410431  -0.792   1.430   4.285 -0.0994  0.2966  0.2052
    6MOL    C4510432  -0.796   1.301   4.261  0.1841 -0.1596 -0.1981
    6MOL    C4610433  -0.717   1.193   4.337  0.0942 -0.4327  0.6329
    6MOL    F1010434  -0.609   1.239   4.413 -0.0617 -0.5554  0.0185
    6MOL    F1110435  -0.798   1.126   4.421 -0.0122 -0.5729 -0.3814
    6MOL     H410436  -0.744   1.478   4.363 -1.1461  0.9390  0.7864
    6MOL     H510437  -0.830   1.607   3.950 -0.2777  5.1296 -0.2376
    6MOL     H610438  -0.784   1.851   3.911  1.6571 -0.9630 -0.7390
    6MOL     H710439  -0.922   1.703   4.373 -0.4167  1.8215 -1.2055
    6MOL     H810440  -0.872   1.933   4.328 -1.2845  1.4540 -1.3535
    6MOL     H910441  -0.908   2.430   4.168 -1.9279 -3.1641 -0.5216
    6MOL    H1010442  -0.508   2.532   4.032 -2.5192 -1.7858 -1.6349
    6MOL    H1110443  -0.449   2.292   4.017  1.1883  2.2747 -1.8358
    6MOL    H1210444  -0.703   2.541   4.360 -2.1300  1.0867  0.2273
    6MOL    H1310445  -0.981   2.817   4.170  1.9023  1.3489 -0.1427
    6MOL    H1410446  -0.805   2.581   4.577 -0.5279 -3.8573 -0.6713
    6MOL     O410447  -1.199   2.928   4.365 -0.0240 -0.2201  0.2266
    6MOL    H1510448  -0.935   1.465   3.854 -0.3111 -0.4313 -1.1727
    6MOL    H1610449  -1.123   1.463   3.706  0.6207 -0.8967 -0.2045
    6MOL    H1710450  -1.193   1.418   4.193  3.5942 -1.1097  1.0276
    6MOL    H1810451  -1.040   1.009   3.841  2.3020  1.0592  0.3293
    6MOL    H1910452  -1.272   1.104   3.866 -1.5428 -1.1704  3.6641
    6MOL    H2010453  -0.993   1.225   3.472  1.5815 -0.6522 -2.0545
    6MOL    H2110454  -1.223   1.300   3.473 -2.7329  3.1490  2.4037
    6MOL    H2210455  -1.538   1.211   3.564  1.2672 -1.4767  0.3213
    6MOL    H2310456  -1.386   1.398   4.039  0.8660 -2.7716 -0.0013
    6MOL    F1210457  -0.666   1.095   4.255  0.4569 -0.0308  0.3913
    6MOL    C4710458  -0.936   1.153   4.105  0.4332  0.1406 -0.0414
    6MOL    H2410459  -0.883   1.067   4.159  1.6336  1.4906  1.2476
    6MOL    H2510460  -0.914   1.142   3.997 -1.0770  1.0122  0.3564
    6MOL    H2610461  -1.049   1.154   4.111 -1.3814 -1.0071  0.7432
    6MOL     N110462  -0.693   2.726   5.161 -0.0767  0.5111 -0.6020
    6MOL     N210463  -0.625   2.907   5.042  0.6726  0.2104 -0.1885
    6MOL     C110464  -0.737   2.838   5.083  0.0244 -0.7638  0.0541
    6MOL     C210465  -0.602   2.946   4.911 -0.1885  0.0334  0.1313
    6MOL     C310466  -0.471   2.970   4.867  0.6148 -0.0709 -0.4822
    6MOL     C410467  -0.438   3.027   4.742  0.7394  0.0601 -0.0479
    6MOL     C510468  -0.552   3.039   4.656 -0.1092  0.9555  0.2242
    6MOL     C610469  -0.687   3.020   4.697  0.1154  1.0864 -0.2969
    6MOL     C710470  -0.711   2.975   4.828  0.1386 -0.6290  0.7164
    6MOL     N310471  -0.514   3.093   4.529  0.0192  0.2537 -0.1086
    6MOL     C810472  -0.497   3.228   4.509 -0.1972  0.8715  0.3062
    6MOL     C910473  -0.458   3.235   4.372 -0.2357 -0.1281  0.3247
    6MOL    C1010474  -0.460   3.110   4.313 -0.8468  0.5154 -0.5600
    6MOL    C1110475  -0.497   3.017   4.415  0.4014  0.5373  0.5405
    6MOL     O110476  -0.502   2.895   4.410 -0.0743 -0.6139  0.0353
    6MOL    C1210477  -0.428   3.349   4.295 -0.6824  0.2298  0.5172
    6MOL    C1310478  -0.400   3.339   4.161 -0.1653 -1.3709  0.5402
    6MOL    C1410479  -0.394   3.208   4.105  0.3392 -0.2190  0.1066
    6MOL    C1510480  -0.422   3.091   4.178 -0.2934 -1.0740 -0.3075
    6MOL    C1610481  -0.229   3.418   3.995  0.2225  0.1505 -0.4027
    6MOL    C1710482  -0.197   3.457   3.864  0.1641 -0.2851  0.2215
    6MOL    C1810483  -0.081   3.407   3.796 -0.6019 -0.7386 -0.5611
    6MOL    C1910484  -0.131   3.346   4.064  0.0635 -0.8810  0.8734
    6MOL    C2010485   0.006   3.323   3.860 -0.5269  0.2954 -0.0774
    6MOL    C2110486  -0.014   3.300   3.996  0.7121  0.1166  0.2971
    6MOL    C2210487  -0.364   3.458   4.076  0.5632 -0.4728 -0.5209
    6MOL    C2310488  -0.474   3.486   3.968  0.4437  0.6149 -0.4749
    6MOL     F110489  -0.486   3.380   3.882 -0.3711 -0.1251 -0.3750
    6MOL     F210490  -0.457   3.609   3.908  0.6803 -0.6343 -0.6919
    6MOL     F310491  -0.601   3.485   4.022 -0.3331  0.0616 -0.0843
    6MOL    C2410492  -0.335   3.598   4.159 -0.6922  0.1627  0.3834
    6MOL     F410493  -0.288   3.695   4.075 -0.7969  0.0428 -0.5259
    6MOL     F510494  -0.237   3.571   4.250  0.1862 -0.1341 -0.0542
    6MOL     F610495  -0.443   3.641   4.224 -0.0252  0.0434 -0.0115
    6MOL     O210496  -0.505   3.322   4.587 -0.2174 -0.0258 -0.1103
    6MOL    C2510497  -0.027   3.442   3.664  0.4443 -1.2944  0.6834
    6MOL     N410498   0.083   3.355   3.652  0.7285 -0.2229  0.6695
    6MOL    C2610499   0.109   3.287   3.765 -0.2398  0.8636 -0.5963
    6MOL     O310500   0.207   3.224   3.799 -0.2846  0.3237 -0.2701
    6MOL    C2710501  -0.872   2.879   5.080  0.2541 -0.4724 -0.4029
    6MOL    C2810502  -0.975   2.804   5.015 -0.6587 -0.0940  0.7750
    6MOL    C2910503  -0.903   3.009   5.127  0.4102 -0.3595  0.6051
    6MOL    C3010504  -1.105   2.839   5.029  0.3100 -0.5218 -1.2969
    6MOL    C3110505  -1.039   3.041   5.148 -0.8172 -0.3882  0.4205
    6MOL    C3210506  -1.135   2.954   5.110  0.2014 -0.1047  1.1009
    6MOL    C3310507  -1.265   2.998   5.128 -0.7324  0.5480 -0.4865
    6MOL     N510508  -1.347   3.057   5.026  0.0512  0.7065 -0.5649
    6MOL     N610509  -1.354   2.950   5.231  0.1929 -0.6510  0.1142
    6MOL    C3410510  -1.475   3.054   5.075 -0.2393 -0.1198  1.4893
    6MOL    C3510511  -1.485   2.986   5.191  0.1268 -0.2459 -0.2189
    6MOL    C3610512  -1.317   2.898   5.362 -0.0611 -0.3523  0.0366
    6MOL     H110513  -1.214   2.846   5.357  1.9755 -0.7976  1.8601
    6MOL     H210514  -1.392   2.832   5.411  0.9520  2.8277 -0.7412
    6MOL     H310515  -1.304   2.989   5.429 -1.0449  3.0964  3.0346
    6MOL    C3710516  -1.319   3.042   4.894 -0.0714 -0.1327  0.5057
    6MOL    C3810517  -1.377   2.943   4.818  0.5790  0.1779 -0.7063
    6MOL    C3910518  -1.315   2.894   4.703  0.4252  0.7105 -0.2724
    6MOL    C4010519  -1.190   2.946   4.666 -0.7001  0.1102  0.4981
    6MOL    C4110520  -1.132   3.052   4.740 -0.0545 -0.5177  0.1260
    6MOL    C4210521  -1.204   3.106   4.849  0.1909  0.0789  0.1262
    6MOL    C4310522  -1.610   2.943   5.264  0.4125 -0.1706 -0.1710
    6MOL     F710523  -1.632   2.995   5.385  0.2866 -0.2614 -0.1826
    6MOL     F810524  -1.612   2.815   5.273  0.6349 -0.0604  0.0213
    6MOL     F910525  -1.715   2.972   5.188  0.1644 -0.0111  0.2688
    6MOL    C4410526  -0.528   2.869   5.131 -0.3909 -0.1528  0.4656
    6MOL    C4510527  -0.557   2.759   5.192  0.0765 -0.3387 -0.2504
    6MOL    C4610528  -0.466   2.668   5.267  0.0194  0.0501 -0.2328
    6MOL    F1010529  -0.408   2.575   5.191  0.0299  0.0791 -0.5563
    6MOL    F1110530  -0.372   2.736   5.341  0.1793  0.2542  0.2297
    6MOL     H410531  -0.432   2.922   5.125  1.9382 -2.1900  1.5718
    6MOL     H510532  -0.389   2.943   4.932  2.4056  0.2237 -0.6914
    6MOL     H610533  -0.335   3.060   4.707 -1.3799 -0.0651 -1.9958
    6MOL     H710534  -0.814   2.956   4.859  1.7540  2.5995 -2.3779
    6MOL     H810535  -0.765   3.030   4.627  2.3992 -0.2887  1.6939
    6MOL     H910536  -0.411   3.438   4.347 -1.7082  0.2579  0.9594
    6MOL    H1010537  -0.389   3.192   4.002 -1.6168  0.2699 -0.6854
    6MOL    H1110538  -0.416   2.989   4.131 -3.3074 -0.2711  0.8344
    6MOL    H1210539  -0.148   3.320   4.165 -0.1302 -2.2378 -0.7141
    6MOL    H1310540  -0.268   3.512   3.797 -2.8890 -0.9304 -3.3605
    6MOL    H1410541   0.062   3.242   4.053  1.3311 -2.4724  1.9859
    6MOL     O410542  -0.073   3.501   3.569  0.2467 -0.3026 -0.7732
    6MOL    H1510543  -0.949   2.721   4.948  2.4133 -0.6287  0.8021
    6MOL    H1610544  -1.188   2.781   4.988 -0.4335  0.4377  0.1794
    6MOL    H1710545  -0.824   3.080   5.163 -1.4382  0.1236  1.7673
    6MOL    H1810546  -1.352   2.821   4.637  0.7062  0.6731 -0.9916
    6MOL    H1910547  -1.477   2.907   4.855  0.7923  1.8099 -0.3358
    6MOL    H2010548  -1.032   3.096   4.717 -2.3301 -1.9940 -2.2418
    6MOL    H2110549  -1.167   3.185   4.910 -1.5169 -4.9898  2.6121
    6MOL    H2210550  -1.564   3.068   5.013 -3.4641  0.2273  1.5135
    6MOL    H2310551  -1.073   3.145   5.188 -1.6085  0.7983  1.1493
    6MOL    F1210552  -0.540   2.593   5.352 -0.3297 -0.5038 -0.5080
    6MOL    C4710553  -0.738   2.596   5.130 -0.6031 -0.6931  0.2597
    6MOL    H2410554  -0.784   2.540   5.208  3.4654 -0.9594  0.0559
    6MOL    H2510555  -0.643   2.539   5.113 -0.5988  0.3593 -0.0083
    6MOL    H2610556  -0.799   2.608   5.043  0.9497 -2.3471  0.4380
    6MOL     N110557   0.399   3.454   3.935 -0.2741  0.0204  0.1628
    6MOL     N210558   0.428   3.239   4.022  0.7202 -0.4465  0.7121
    6MOL     C110559   0.468   3.326   3.913 -0.6911 -0.1925 -0.4853
    6MOL     C210560   0.495   3.126   4.077 -0.6567 -0.3275  0.4434
    6MOL     C310561   0.604   3.072   4.011  0.3086  0.4701  0.0533
    6MOL     C410562   0.675   2.961   4.063  0.0372 -0.1276  0.4384
    6MOL     C510563   0.644   2.909   4.188 -0.2131  0.4681  0.3101
    6MOL     C610564   0.544   2.978   4.261 -0.1153  0.1633  0.1548
    6MOL     C710565   0.467   3.081   4.206 -0.4352  0.1667 -1.0594
    6MOL     N310566   0.722   2.802   4.238 -0.1434  0.0395 -0.2749
    6MOL     C810567   0.792   2.805   4.358  0.8301  0.7329  0.2462
    6MOL     C910568   0.860   2.675   4.366 -0.0322  0.3603 -0.5653
    6MOL    C1010569   0.820   2.597   4.255 -0.3489  0.2992  0.1602
    6MOL    C1110570   0.727   2.682   4.168 -0.1851 -0.2646  0.7374
    6MOL     O110571   0.674   2.649   4.062  0.2063 -0.9185  0.2049
    6MOL    C1210572   0.961   2.633   4.455 -0.1028  0.1276  0.5498
    6MOL    C1310573   1.016   2.504   4.434 -0.1983  0.8464 -0.4064
    6MOL    C1410574   0.984   2.426   4.320  0.1743 -0.0317 -0.0716
    6MOL    C1510575   0.881   2.469   4.231 -0.3981  0.3718 -0.4791
    6MOL    C1610576   1.122   2.529   4.664 -0.1564 -0.3687  0.1394
    6MOL    C1710577   1.207   2.636   4.707 -0.6909  0.2469  1.0281
    6MOL    C1810578   1.175   2.713   4.818  0.4042  0.1454  0.4311
    6MOL    C1910579   1.006   2.502   4.740 -0.6140 -0.0600  1.0319
    6MOL    C2010580   1.064   2.681   4.888  0.6137  0.1069 -1.0226
    6MOL    C2110581   0.981   2.565   4.859  0.7479 -0.1596  0.2932
    6MOL    C2210582   1.134   2.462   4.524  0.5452 -0.0712  0.1918
    6MOL    C2310583   1.139   2.306   4.550  0.8189  0.2537  0.3689
    6MOL     F110584   1.020   2.238   4.565 -0.0172  0.1115 -0.5042
    6MOL     F210585   1.223   2.282   4.653 -0.5139  0.0198 -0.1709
    6MOL     F310586   1.204   2.238   4.450 -0.6390 -0.3207  0.0684
    6MOL    C2410587   1.270   2.492   4.449 -0.1693  0.0227 -0.0833
    6MOL     F410588   1.373   2.437   4.519 -0.6818  0.1619  0.2832
    6MOL     F510589   1.301   2.620   4.433  0.2068 -0.2310 -0.8394
    6MOL     F610590   1.277   2.448   4.314  0.0059  0.2825  0.2892
    6MOL     O210591   0.797   2.899   4.440  0.3475  0.0067  0.6624
    6MOL    C2510592   1.237   2.835   4.880  0.3822 -0.3638 -0.5457
    6MOL     N410593   1.154   2.876   4.980 -1.0319  0.2322  0.1776
    6MOL    C2610594   1.043   2.794   4.985  1.0127  0.2305  0.4523
    6MOL     O310595   0.943   2.815   5.051  0.1511  0.0149 -0.1910
    6MOL    C2710596   0.528   3.293   3.790 -0.3854 -0.9573  0.9201
    6MOL    C2810597   0.492   3.173   3.730 -0.4894  0.8043  0.6906
    6MOL    C2910598   0.636   3.377   3.737  0.3362  0.1779 -0.3839
    6MOL    C3010599   0.527   3.155   3.595 -0.4028  0.2211 -0.7502
    6MOL    C3110600   0.668   3.360   3.597 -0.2426 -0.3343  0.0289
    6MOL    C3210601   0.607   3.247   3.529  0.3702  0.2928 -0.2357
    6MOL    C3310602   0.612   3.248   3.387 -0.7016 -0.4759 -0.0630
    6MOL     N510603   0.499   3.287   3.304 -0.0266  0.0417  0.4401
    6MOL     N610604   0.730   3.274   3.309  0.3294  0.1821  0.2906
    6MOL    C3410605   0.551   3.319   3.176 -0.2547 -0.1935  0.0743
    6MOL    C3510606   0.684   3.309   3.182  0.1783  0.4178  0.1400
    6MOL    C3610607   0.840   3.183   3.330 -0.5009 -0.3727  0.1963
    6MOL     H110608   0.924   3.215   3.273 -0.2314  0.5598 -0.9893
    6MOL     H210609   0.820   3.079   3.299  3.1719 -0.8018 -2.0826
    6MOL     H310610   0.874   3.192   3.431 -0.2765  1.6077 -1.6627
    6MOL    C3710611   0.374   3.320   3.359 -0.0423  0.8300  0.0350
    6MOL    C3810612   0.358   3.439   3.430 -0.1106 -0.2821 -0.4683
    6MOL    C3910613   0.260   3.453   3.524 -0.8289  0.1457 -0.3120
    6MOL    C4010614   0.172   3.345   3.549  0.2972  0.3625  0.0246
    6MOL    C4110615   0.180   3.222   3.482 -0.1305  0.7022  0.3030
    6MOL    C4210616   0.287   3.209   3.388  0.5777 -0.2315  0.4257
    6MOL    C4310617   0.778   3.355   3.069  0.6332  0.8644  0.6808
    6MOL     F710618   0.909   3.311   3.084 -0.1728  0.6994  0.1789
    6MOL     F810619   0.776   3.490   3.056 -0.1780  0.2796  0.1808
    6MOL     F910620   0.738   3.287   2.953 -0.2887  0.0695 -0.4383
    6MOL    C4410621   0.326   3.311   4.079 -1.1517 -0.2858  0.2241
    6MOL    C4510622   0.305   3.432   4.028  0.1935  0.1666  1.7586
    6MOL    C4610623   0.210   3.541   4.092  0.3076 -1.4326 -0.2211
    6MOL    F1010624   0.142   3.595   3.994  0.4307 -0.2573 -0.5285
    6MOL    F1110625   0.122   3.500   4.187  0.4611 -0.1878 -0.4365
    6MOL     H410626   0.281   3.275   4.170  1.1177  4.8190  0.1620
    6MOL     H510627   0.641   3.113   3.921  0.2965 -0.7608  2.7426
    6MOL     H610628   0.764   2.929   4.010 -1.0894  1.5464  1.6711
    6MOL     H710629   0.376   3.117   4.253  1.3229  1.5798  1.5833
    6MOL     H810630   0.520   2.944   4.360 -1.3012  0.0768 -1.4415
    6MOL     H910631   1.010   2.711   4.521  1.9852 -0.2795  1.0659
    6MOL    H1010632   1.038   2.337   4.295  1.0883 -1.0912  0.0723
    6MOL    H1110633   0.850   2.409   4.149  2.2748  2.8861 -3.3545
    6MOL    H1210634   0.940   2.424   4.709  0.0146  0.3205  1.6522
    6MOL    H1310635   1.296   2.658   4.658  0.7593  1.3624 -0.0612
    6MOL    H1410636   0.889   2.559   4.907  1.9350  2.9644  0.4486
    6MOL     O410637   1.336   2.897   4.846  0.1282  0.1178 -0.5166
    6MOL    H1510638   0.416   3.105   3.779 -4.6550  2.2270 -3.7661
    6MOL    H1610639   0.482   3.075   3.542  1.9282  3.3672  1.7490
    6MOL    H1710640   0.661   3.467   3.788  1.8058 -1.5545 -0.7700
    6MOL    H1810641   0.255   3.548   3.584  3.1898 -1.6341  1.4093
    6MOL    H1910642   0.432   3.517   3.417  2.6151 -1.7228  1.0513
    6MOL    H2010643   0.114   3.142   3.503 -0.4775  1.2671 -0.1344
    6MOL    H2110644   0.322   3.109   3.357 -1.1739 -0.5715 -0.3652
    6MOL    H2210645   0.491   3.363   3.094 -0.7783 -1.5502 -0.4505
    6MOL    H2310646   0.727   3.442   3.553  2.3481 -0.4716  1.3449
    6MOL    F1210647   0.292   3.640   4.143 -0.0127 -0.1548  0.1256
    6MOL    C4710648   0.375   3.543   3.826  0.2413 -0.0712  1.1863
    6MOL    H2410649   0.417   3.637   3.843 -2.9066  0.1950 -1.7465
    6MOL    H2510650   0.264   3.553   3.803  1.5022 -1.6280 -0.8026
    6MOL    H2610651   0.412   3.506   3.730  0.4604 -1.2163 -1.4596
    6MOL     N110652   1.236   3.102   4.430 -0.2148  0.1584 -0.1179
    6MOL     N210653   1.134   3.255   4.301  0.0084  0.5722 -0.0702
    6MOL     C110654   1.187   3.236   4.435  0.2363 -0.2004  0.2801
    6MOL     C210655   1.070   3.363   4.239 -0.4823 -0.2898  0.6688
    6MOL     C310656   1.099   3.498   4.277 -0.1123  0.2786  0.0754
    6MOL     C410657   1.037   3.605   4.208 -0.3669  0.5123  0.0243
    6MOL     C510658   0.948   3.571   4.101 -0.8561 -0.0425  0.0537
    6MOL     C610659   0.912   3.437   4.071 -0.4158  0.1134 -0.6737
    6MOL     C710660   0.970   3.338   4.142  0.3856 -0.5047  0.1234
    6MOL     N310661   0.861   3.666   4.043  0.3580  0.0759 -0.1393
    6MOL     C810662   0.720   3.659   4.043  0.3801 -0.5065 -0.1963
    6MOL     C910663   0.675   3.792   4.012 -0.8520 -0.2215 -0.1503
    6MOL    C1010664   0.786   3.874   3.983  0.4872 -0.2334 -0.1066
    6MOL    C1110665   0.909   3.791   4.001 -0.4748  0.2329  0.2135
    6MOL     O110666   1.023   3.829   3.990 -0.3898  0.3750 -0.3166
    6MOL    C1210667   0.544   3.833   4.017 -0.3955  0.1921  0.5530
    6MOL    C1310668   0.524   3.977   4.004 -0.0608  0.2290  0.4091
    6MOL    C1410669   0.634   4.055   3.966 -0.1399 -0.3879  0.0130
    6MOL    C1510670   0.768   4.008   3.955 -0.4380 -0.6179  0.4210
    6MOL    C1610671   0.327   3.967   4.160  0.2235  0.7940 -0.1419
    6MOL    C1710672   0.190   3.958   4.192  0.6117 -0.3174 -0.3657
    6MOL    C1810673   0.149   3.876   4.304  0.3145  0.3902  0.0701
    6MOL    C1910674   0.415   3.920   4.264 -0.1337  0.1285 -0.3814
    6MOL    C2010675   0.243   3.822   4.383 -0.7718 -0.0062  0.1513
    6MOL    C2110676   0.379   3.848   4.376  0.1431 -0.2371  0.1708
    6MOL    C2210677   0.377   4.032   4.029  0.2197 -0.5330 -0.0862
    6MOL    C2310678   0.378   4.185   4.061  0.0297  0.0744  0.3653
    6MOL     F110679   0.478   4.224   4.148  0.1135 -0.1466  0.1841
    6MOL     F210680   0.255   4.227   4.103  0.3120  0.0044  0.3173
    6MOL     F310681   0.406   4.253   3.938 -0.3186  0.4545  0.3283
    6MOL    C2410682   0.286   3.997   3.912 -0.0721  0.0761  0.7774
    6MOL     F410683   0.179   4.086   3.901 -0.1229  0.1846 -0.0804
    6MOL     F510684   0.242   3.866   3.915 -0.2935 -0.2974  0.8923
    6MOL     F610685   0.360   4.004   3.796  0.3682  0.4050 -0.0845
    6MOL     O210686   0.657   3.568   4.090  0.6193  0.5482  0.1130
    6MOL    C2510687   0.010   3.826   4.342 -0.6743  0.2048  0.0145
    6MOL     N410688   0.044   3.734   4.443 -0.0498 -0.0235  0.9425
    6MOL    C2610689   0.179   3.731   4.477 -0.1220  0.4658 -0.5271
    6MOL     O310690   0.230   3.668   4.572  0.3044  0.2764 -0.1425
    6MOL    C2710691   1.204   3.320   4.546 -0.0842  0.3410  0.0013
    6MOL    C2810692   1.114   3.424   4.576  0.0072 -0.3851  0.4296
    6MOL    C2910693   1.310   3.301   4.631  0.7848  0.1883 -0.1326
    6MOL    C3010694   1.125   3.502   4.690  0.1065  0.3496 -1.0173
    6MOL    C3110695   1.319   3.367   4.750 -0.1388 -0.1333 -0.3103
    6MOL    C3210696   1.217   3.460   4.788  0.3558 -0.1640 -0.5336
    6MOL    C3310697   1.219   3.515   4.918  0.2571  0.1455  0.3154
    6MOL     N510698   1.218   3.437   5.036 -0.2423 -0.3438  0.3845
    6MOL     N610699   1.206   3.648   4.958  0.7852  0.1968  0.0171
    6MOL    C3410700   1.208   3.528   5.140 -0.1195  0.0924 -0.5121
    6MOL    C3510701   1.198   3.651   5.094 -0.1902 -0.3252 -0.1368
    6MOL    C3610702   1.285   3.749   4.882 -0.2644  0.3154 -0.1298
    6MOL     H110703   1.220   3.825   4.842  1.3324 -1.8919 -1.3412
    6MOL     H210704   1.350   3.707   4.809 -1.3454 -0.8690 -0.6406
    6MOL     H310705   1.359   3.803   4.943  0.2955  0.6446  1.8971
    6MOL    C3710706   1.198   3.298   5.045  0.7489  0.2811  0.2595
    6MOL    C3810707   1.308   3.211   5.079 -0.0275 -0.3882  0.7437
    6MOL    C3910708   1.287   3.068   5.068  0.2153 -0.0634  0.2792
    6MOL    C4010709   1.164   3.009   5.026  0.5272 -0.0120  0.9260
    6MOL    C4110710   1.055   3.101   5.000 -0.2919 -0.4405 -0.2384
    6MOL    C4210711   1.076   3.241   5.007  0.0070  0.1970  1.1430
    6MOL    C4310712   1.191   3.782   5.167  0.1700 -0.9928 -0.7421
    6MOL     F710713   1.140   3.885   5.091  0.1933 -0.6913 -0.6466
    6MOL     F810714   1.312   3.814   5.231  0.1309 -0.0690 -0.5313
    6MOL     F910715   1.120   3.762   5.276 -0.3604 -0.0445  0.0659
    6MOL    C4410716   1.168   3.140   4.228  0.3952  1.3339  0.0009
    6MOL    C4510717   1.216   3.046   4.304  0.3212  0.6500  0.6200
    6MOL    C4610718   1.248   2.906   4.280 -0.3567 -0.8898 -0.1587
    6MOL    F1010719   1.155   2.819   4.319  0.1135  0.1025 -0.6883
    6MOL    F1110720   1.260   2.890   4.147 -0.1747 -0.0171 -0.5527
    6MOL     H410721   1.139   3.135   4.125 -0.3986  0.7093  0.5578
    6MOL     H510722   1.160   3.520   4.362 -1.8015  0.2999  1.0275
    6MOL     H610723   1.071   3.708   4.229 -1.4564  0.5887 -1.5845
    6MOL     H710724   0.924   3.236   4.134 -1.8214 -1.4239  1.5379
    6MOL     H810725   0.827   3.411   4.015  2.4235  2.0904 -0.8368
    6MOL     H910726   0.469   3.762   4.025  0.5556  2.5033 -0.3763
    6MOL    H1010727   0.626   4.161   3.941 -0.7588 -1.5516 -2.3967
    6MOL    H1110728   0.851   4.071   3.933 -0.3354  0.3500 -1.2846
    6MOL    H1210729   0.523   3.948   4.255  1.2693  1.7870  0.0235
    6MOL    H1310730   0.118   4.000   4.126  2.4738  0.5109  0.9874
    6MOL    H1410731   0.450   3.819   4.449 -0.1067  0.4181 -0.2033
    6MOL     O410732  -0.096   3.852   4.299  0.0460  0.1523  0.5696
    6MOL    H1510733   1.046   3.436   4.500  0.1276 -0.1277  2.1983
    6MOL    H1610734   1.067   3.589   4.704  0.9851  0.0137 -1.3489
    6MOL    H1710735   1.375   3.209   4.619  0.3153 -0.9294  0.6858
    6MOL    H1810736   1.370   2.999   5.084 -1.8579 -1.0871 -0.9547
    6MOL    H1910737   1.410   3.251   5.108  0.9042  0.4864 -3.3105
    6MOL    H2010738   0.970   3.067   4.945 -0.5550  1.0868  0.4375
    6MOL    H2110739   0.999   3.309   4.977 -0.5386 -0.7246  0.2523
    6MOL    H2210740   1.207   3.497   5.241  0.7647 -0.2168 -1.4377
    6MOL    H2310741   1.392   3.340   4.822 -1.0345 -0.1466  0.7564
    6MOL    F1210742   1.355   2.852   4.343 -0.1040 -0.2235  0.7645
    6MOL    C4710743   1.213   3.007   4.542 -0.1781  0.2136 -0.9407
    6MOL    H2410744   1.312   2.960   4.560  0.1179  0.9665  0.5711
    6MOL    H2510745   1.135   2.937   4.516 -0.6555  0.0409  0.8022
    6MOL    H2610746   1.179   3.062   4.629 -0.4339 -0.3162  0.1417
    6MOL     N110747   0.498   3.410   4.597 -0.5229 -0.2374 -0.2419
    6MOL     N210748   0.518   3.462   4.822 -0.2570 -0.7496  0.5257
    6MOL     C110749   0.425   3.423   4.720  0.1028  0.2973  0.3459
    6MOL     C210750   0.503   3.547   4.924  0.8208 -0.1470  0.4554
    6MOL     C310751   0.388   3.541   5.010 -0.7523 -0.6823  0.5512
    6MOL     C410752   0.379   3.623   5.123 -0.7598 -0.1263  0.0760
    6MOL     C510753   0.475   3.723   5.146  0.0999 -0.8804 -0.1161
    6MOL     C610754   0.582   3.737   5.058 -0.7235 -0.5192 -0.7360
    6MOL     C710755   0.599   3.647   4.948 -0.3437  0.4469  0.6366
    6MOL     N310756   0.454   3.799   5.263  0.1833  0.0260 -0.6007
    6MOL     C810757   0.440   3.749   5.390 -0.3889 -0.3002  0.7304
    6MOL     C910758   0.423   3.862   5.481  0.4487  0.8565 -0.6268
    6MOL    C1010759   0.420   3.976   5.408 -0.7915 -0.5553 -0.2408
    6MOL    C1110760   0.437   3.940   5.264 -0.0147 -0.6993 -0.5298
    6MOL     O110761   0.421   4.017   5.170 -0.1957 -0.1344 -0.6349
    6MOL    C1210762   0.431   3.868   5.624  0.3843  0.0955  0.2574
    6MOL    C1310763   0.415   3.995   5.690  0.5829 -0.6234 -0.3716
    6MOL    C1410764   0.404   4.112   5.615 -0.6446 -0.3182 -0.9690
    6MOL    C1510765   0.406   4.104   5.475 -1.2032 -0.3235  0.2543
    6MOL    C1610766   0.550   3.905   5.877  0.3092  0.5249  0.1574
    6MOL    C1710767   0.663   3.931   5.799  0.3427  0.6294  0.2947
    6MOL    C1810768   0.773   3.848   5.814 -0.5705 -0.1757  0.4766
    6MOL    C1910769   0.555   3.809   5.980  0.2363  0.6515  0.0542
    6MOL    C2010770   0.779   3.751   5.910 -0.6781  0.6324 -0.2207
    6MOL    C2110771   0.669   3.731   5.993  0.6291 -0.0423  0.0747
    6MOL    C2210772   0.427   3.994   5.851 -0.9334  0.1281 -0.1499
    6MOL    C2310773   0.467   4.130   5.925  0.1436  0.5644 -0.1226
    6MOL     F110774   0.358   4.214   5.928 -0.2698 -0.2533 -0.5562
    6MOL     F210775   0.570   4.193   5.867 -0.1675 -0.1604 -0.1833
    6MOL     F310776   0.498   4.105   6.055  0.1084  0.1045  0.2583
    6MOL    C2410777   0.284   3.938   5.901  0.5026  0.3616  0.2035
    6MOL     F410778   0.247   3.831   5.833 -0.3891  0.4285  0.6124
    6MOL     F510779   0.185   4.032   5.877 -0.3839 -0.2282 -0.1681
    6MOL     F610780   0.286   3.906   6.029  0.0496  0.3678 -0.2339
    6MOL     O210781   0.463   3.629   5.421 -0.0413 -0.8924  0.1815
    6MOL    C2510782   0.896   3.848   5.739  0.2805 -0.0152  0.0208
    6MOL     N410783   0.980   3.753   5.799  0.8252 -0.2941  0.1368
    6MOL    C2610784   0.917   3.688   5.901  0.7150 -0.0934 -0.0945
    6MOL     O310785   0.966   3.598   5.967 -0.4500 -0.0419 -0.0542
    6MOL    C2710786   0.286   3.400   4.740  0.8763  0.0571  0.1442
    6MOL    C2810787   0.202   3.505   4.775  0.1696  0.4904 -0.7624
    6MOL    C2910788   0.245   3.262   4.751  0.2785  0.3358  0.2144
    6MOL    C3010789   0.070   3.476   4.808 -0.4597 -0.4795  0.4440
    6MOL    C3110790   0.108   3.236   4.794 -0.0168  0.3161 -0.5483
    6MOL    C3210791   0.020   3.345   4.807  0.0078  0.4699  0.0511
    6MOL    C3310792  -0.118   3.324   4.833  0.1257 -0.5555 -0.1890
    6MOL     N510793  -0.220   3.385   4.755 -0.0953  0.1109  0.5013
    6MOL     N610794  -0.185   3.262   4.941 -0.5123  0.0406  0.5058
    6MOL    C3410795  -0.341   3.371   4.832 -0.9043  0.3895 -0.0536
    6MOL    C3510796  -0.318   3.284   4.934  0.1913 -0.0677 -0.4969
    6MOL    C3610797  -0.117   3.157   5.027  0.1670 -0.1100 -0.4965
    6MOL     H110798  -0.174   3.125   5.113  0.2850  1.9048  2.6952
    6MOL     H210799  -0.024   3.201   5.067 -1.0946 -2.8714 -0.1515
    6MOL     H310800  -0.086   3.075   4.965  0.0837  2.2524 -0.1168
    6MOL    C3710801  -0.192   3.464   4.644 -0.5861  0.0240  0.2335
    6MOL    C3810802  -0.110   3.416   4.541 -0.4598  0.2737  0.4467
    6MOL    C3910803  -0.034   3.508   4.466  0.2543  0.3469  0.1202
    6MOL    C4010804  -0.045   3.646   4.496 -0.0921  0.4983 -0.3224
    6MOL    C4110805  -0.150   3.689   4.573 -0.6000 -0.1979 -1.0178
    6MOL    C4210806  -0.219   3.600   4.655 -0.3130  0.3381  0.7909
    6MOL    C4310807  -0.419   3.262   5.052  0.7067  0.2803 -0.0059
    6MOL     F710808  -0.371   3.193   5.158 -0.7903  0.6306 -0.4187
    6MOL     F810809  -0.523   3.196   5.003  0.5600  0.3100  0.3717
    6MOL     F910810  -0.455   3.387   5.091  0.0729 -0.0554  0.6058
    6MOL    C4410811   0.643   3.433   4.761  0.4401  0.1754 -1.3587
    6MOL    C4510812   0.634   3.396   4.635 -0.0056 -0.2220 -0.1923
    6MOL    C4610813   0.743   3.378   4.536  0.3143 -0.3813  0.2135
    6MOL    F1010814   0.857   3.343   4.605  0.4327  0.7681  0.5221
    6MOL    F1110815   0.709   3.287   4.445 -0.4081 -0.2147 -0.6485
    6MOL     H410816   0.731   3.451   4.817 -2.0304 -1.4470  1.9472
    6MOL     H510817   0.305   3.465   4.993 -1.3670  0.5925 -0.5217
    6MOL     H610818   0.291   3.613   5.191  1.8653 -0.9352  0.5079
    6MOL     H710819   0.683   3.656   4.883 -2.1276 -1.5424  2.8328
    6MOL     H810820   0.658   3.813   5.086 -1.8083 -2.0518  3.2580
    6MOL     H910821   0.445   3.769   5.672  1.4837  0.1942  1.4592
    6MOL    H1010822   0.406   4.208   5.670 -4.6114 -0.3201  2.2171
    6MOL    H1110823   0.398   4.201   5.415 -0.3551 -1.2543 -2.0101
    6MOL    H1210824   0.467   3.776   6.043 -0.6436 -2.7191 -2.0366
    6MOL    H1310825   0.658   4.007   5.722  0.1975  2.2123 -0.4443
    6MOL    H1410826   0.659   3.644   6.060 -1.9748  2.0192 -2.0528
    6MOL     O410827   0.926   3.918   5.644 -0.2755  0.1730  0.0475
    6MOL    H1510828   0.243   3.602   4.783  0.7915  2.5333 -0.4576
    6MOL    H1610829   0.005   3.560   4.829  1.8907  0.3184  2.3972
    6MOL    H1710830   0.311   3.179   4.750 -2.9084  4.0020 -0.0001
    6MOL    H1810831   0.035   3.468   4.395 -1.2503 -1.4593  1.6310
    6MOL    H1910832  -0.085   3.316   4.524 -2.3080 -0.2521  1.5257
    6MOL    H2010833  -0.165   3.798   4.580 -1.3718 -0.0514 -1.0520
    6MOL    H2110834  -0.277   3.644   4.735 -0.5884  2.2487  1.2397
    6MOL    H2210835  -0.434   3.423   4.804 -0.6074 -3.4916 -0.0946
    6MOL    H2310836   0.083   3.128   4.800  1.1009  0.0653 -1.9236
    6MOL    F1210837   0.772   3.493   4.474 -0.4785 -0.5190 -0.0917
    6MOL    C4710838   0.447   3.439   4.460 -0.0622  0.0926 -1.4117
    6MOL    H2410839   0.521   3.428   4.387 -1.1815  2.4276  0.9079
    6MOL    H2510840   0.403   3.541   4.456 -1.1936 -0.2803  2.6494
    6MOL    H2610841   0.362   3.376   4.433  1.3975  0.6655 -1.2984
    6MOL     N110842   1.241   3.175   5.446 -0.1041  0.3850  0.4245
    6MOL     N210843   1.434   3.067   5.371 -0.2892 -0.1862 -0.5131
    6MOL     C110844   1.376   3.196   5.411  0.2935 -0.3150 -0.7882
    6MOL     C210845   1.554   3.052   5.296  0.4963 -0.1822  1.0298
    6MOL     C310846   1.638   3.157   5.246 -0.0183 -0.1633  0.9402
    6MOL     C410847   1.730   3.134   5.138  0.2007  0.5569  0.6313
    6MOL     C510848   1.741   3.003   5.085 -0.4714 -0.1178  0.2392
    6MOL     C610849   1.670   2.899   5.150  0.1921 -0.3871  0.2818
    6MOL     C710850   1.593   2.923   5.265  0.0237 -0.1636  0.2614
    6MOL     N310851   1.804   2.974   4.962 -0.6257  0.1806 -0.1373
    6MOL     C810852   1.735   2.918   4.854  0.3837 -0.6284  0.4957
    6MOL     C910853   1.836   2.913   4.744 -0.6263 -0.2686  0.0988
    6MOL    C1010854   1.958   2.943   4.790  0.3398  0.3372  0.2197
    6MOL    C1110855   1.940   2.988   4.933  0.1129 -0.3001 -0.2227
    6MOL     O110856   2.026   3.039   5.005  0.1935 -0.1523  0.3614
    6MOL    C1210857   1.807   2.903   4.605 -0.6105  0.6487  0.6816
    6MOL    C1310858   1.913   2.923   4.511 -0.5038 -0.4890 -0.4676
    6MOL    C1410859   2.042   2.942   4.568 -0.1942  0.2739  0.2928
    6MOL    C1510860   2.068   2.953   4.707  0.6403  0.2737  0.0379
    6MOL    C1610861   1.953   3.058   4.303 -0.1330 -0.1117  0.3463
    6MOL    C1710862   2.037   3.066   4.187 -0.1811 -0.3511  0.5919
    6MOL    C1810863   2.076   3.186   4.134 -0.5243 -0.7169 -0.4341
    6MOL    C1910864   1.914   3.178   4.353  0.5909 -0.3774  0.3578
    6MOL    C2010865   2.037   3.306   4.193 -0.4920 -0.4250  0.4644
    6MOL    C2110866   1.951   3.304   4.302 -0.1285 -0.2357 -0.4391
    6MOL    C2210867   1.897   2.922   4.361  0.9050 -0.2833  1.1257
    6MOL    C2310868   1.978   2.795   4.311 -0.4556 -0.0403 -0.3092
    6MOL     F110869   1.941   2.686   4.382 -0.0521  0.2205 -0.1736
    6MOL     F210870   2.113   2.804   4.317 -0.1916 -0.0843  0.7618
    6MOL     F310871   1.963   2.764   4.179  0.1588  0.0392  0.3215
    6MOL    C2410872   1.748   2.914   4.313  0.2864  0.3594 -0.2966
    6MOL     F410873   1.739   2.932   4.172  0.0398 -0.2918 -0.0879
    6MOL     F510874   1.661   3.001   4.369  0.4893  0.0178  0.2164
    6MOL     F610875   1.688   2.797   4.337  0.2196 -0.2753 -0.2239
    6MOL     O210876   1.618   2.886   4.848  0.1290 -0.0557  0.1997
    6MOL    C2510877   2.170   3.221   4.023 -0.1645 -0.2723 -0.0008
    6MOL     N410878   2.175   3.362   4.017  0.0901  0.0986  0.2975
    6MOL    C2610879   2.108   3.418   4.119  0.0086  0.3421 -0.0312
    6MOL     O310880   2.101   3.533   4.141 -0.1224 -0.2410  0.9086
    6MOL    C2710881   1.443   3.316   5.428 -0.3767 -0.1641 -1.2530
    6MOL    C2810882   1.427   3.415   5.337 -0.3917 -0.1879  0.5038
    6MOL    C2910883   1.525   3.349   5.542 -0.3307  0.4664  0.0684
    6MOL    C3010884   1.487   3.537   5.348 -0.7673  0.5405 -0.5542
    6MOL    C3110885   1.587   3.471   5.559 -0.3212 -0.6464  0.4774
    6MOL    C3210886   1.558   3.573   5.469  0.2913  0.5108  0.1197
    6MOL    C3310887   1.590   3.700   5.509 -0.5008 -0.2420  0.4680
    6MOL     N510888   1.506   3.776   5.595 -0.5248 -0.6268  0.0974
    6MOL     N610889   1.719   3.752   5.507  0.1860  0.7023 -0.1664
    6MOL    C3410890   1.587   3.886   5.614 -0.4763  0.2070 -0.0826
    6MOL    C3510891   1.709   3.876   5.562 -0.1130  0.4137 -0.7104
    6MOL    C3610892   1.813   3.738   5.396  0.5370  0.0758  0.2916
    6MOL     H110893   1.806   3.826   5.332 -0.6319 -1.4533  2.5139
    6MOL     H210894   1.785   3.643   5.342 -1.1895  0.4454 -1.8703
    6MOL     H310895   1.906   3.717   5.443  1.4952  0.3590  0.2985
    6MOL    C3710896   1.380   3.748   5.649  0.0280 -0.7353 -0.7243
    6MOL    C3810897   1.270   3.709   5.562 -0.0761  0.4912  0.0321
    6MOL    C3910898   1.140   3.709   5.615 -0.3860  0.1347  0.3022
    6MOL    C4010899   1.114   3.734   5.753  0.4101 -0.6501 -0.6320
    6MOL    C4110900   1.219   3.779   5.834 -0.4476  0.8578 -0.1319
    6MOL    C4210901   1.349   3.783   5.781  0.0507 -0.1994 -0.2013
    6MOL    C4310902   1.815   3.981   5.557 -0.1896  0.3507  0.2763
    6MOL     F710903   1.816   4.034   5.433  0.5257 -0.6060  0.3408
    6MOL     F810904   1.936   3.937   5.593  0.0968 -0.3129 -0.2724
    6MOL     F910905   1.798   4.078   5.640 -0.1734 -0.2481 -0.0987
    6MOL    C4410906   1.320   2.980   5.367 -0.6412 -0.4339 -0.3166
    6MOL    C4510907   1.215   3.041   5.419  0.3388 -0.0462  0.6135
    6MOL    C4610908   1.078   2.973   5.441 -0.6967  0.2757 -0.3017
    6MOL    F1010909   0.980   3.054   5.468  0.1156  0.2109 -0.2922
    6MOL    F1110910   1.034   2.914   5.327 -0.3724 -0.4102  0.2238
    6MOL     H410911   1.338   2.876   5.339 -2.4540  1.5024 -2.5068
    6MOL     H510912   1.617   3.255   5.289  1.2337  1.8548  2.8362
    6MOL     H610913   1.787   3.216   5.095 -0.9581  1.5574 -0.0952
    6MOL     H710914   1.541   2.840   5.312  3.0108 -0.2645 -2.7836
    6MOL     H810915   1.692   2.798   5.114 -0.1871 -2.1292  0.0821
    6MOL     H910916   1.700   2.895   4.579 -1.3046  0.5758 -2.1335
    6MOL    H1010917   2.128   2.945   4.502 -1.2888 -2.0781  0.0193
    6MOL    H1110918   2.165   2.963   4.739  0.2718 -1.9754 -1.3001
    6MOL    H1210919   1.849   3.182   4.440 -2.5257 -2.0874 -0.4954
    6MOL    H1310920   2.073   2.975   4.141  2.8009 -0.3661  1.8398
    6MOL    H1410921   1.925   3.389   4.352 -0.6284 -1.6877 -1.0343
    6MOL     O410922   2.237   3.140   3.966 -0.0396 -0.0416 -0.1268
    6MOL    H1510923   1.368   3.392   5.250 -0.0006  0.4918  0.1934
    6MOL    H1610924   1.471   3.609   5.266  0.4362 -1.8856  0.0819
    6MOL    H1710925   1.538   3.269   5.616  3.4545  1.5838 -2.4539
    6MOL    H1810926   1.060   3.689   5.540  1.3524  1.9650  0.0916
    6MOL    H1910927   1.284   3.708   5.455  0.7207 -0.9491 -1.6275
    6MOL    H2010928   1.208   3.807   5.934  0.7188  0.9922 -1.5559
    6MOL    H2110929   1.425   3.802   5.858  0.0499 -1.1505  3.0517
    6MOL    H2210930   1.537   3.971   5.667 -1.8768  0.7975 -1.9837
    6MOL    H2310931   1.636   3.492   5.655 -0.0864 -0.9482 -1.3624
    6MOL    F1210932   1.080   2.881   5.537  0.3355 -0.3234  0.3876
    6MOL    C4710933   1.175   3.251   5.554  0.1091  0.7584 -0.3031
    6MOL    H2410934   1.160   3.197   5.649  0.7270 -1.1400 -0.1842
    6MOL    H2510935   1.068   3.260   5.514 -2.9045 -2.6260  0.0014
    6MOL    H2610936   1.221   3.347   5.565  0.7577 -1.3273 -1.8511
    6MOL     N110937   2.187   3.724   4.515 -0.5307  0.1130 -0.6540
    6MOL     N210938   2.261   3.937   4.511 -1.2602 -0.3623 -0.0225
    6MOL     C110939   2.272   3.816   4.447 -0.3791  1.0108  0.2579
    6MOL     C210940   2.357   4.040   4.489 -0.4913 -0.6245 -0.1186
    6MOL     C310941   2.490   4.008   4.514 -0.4378  0.2418 -0.1915
    6MOL     C410942   2.590   4.099   4.486  0.2038  0.1781 -0.1136
    6MOL     C510943   2.556   4.226   4.433  0.8904 -0.1404  0.0501
    6MOL     C610944   2.418   4.256   4.412 -0.2515 -0.5865  0.1046
    6MOL     C710945   2.319   4.167   4.446 -0.5246  0.4988  0.5405
    6MOL     N310946   2.655   4.311   4.378  0.2788 -0.7083 -1.0602
    6MOL     C810947   2.657   4.350   4.242 -0.0974 -0.0659  0.0475
    6MOL     C910948   2.781   4.427   4.214  0.1561  0.3089 -0.1655
    6MOL    C1010949   2.842   4.431   4.335 -0.5815 -0.7185  0.0101
    6MOL    C1110950   2.764   4.361   4.445 -0.2081 -0.1889  0.3045
    6MOL     O110951   2.796   4.344   4.564 -0.7773 -0.5114  0.1771
    6MOL    C1210952   2.828   4.488   4.097 -0.7355 -0.1886 -0.9489
    6MOL    C1310953   2.945   4.564   4.104  0.2893 -0.0084 -0.1698
    6MOL    C1410954   3.016   4.571   4.228  1.0741 -0.0853  0.4792
    6MOL    C1510955   2.966   4.504   4.342  0.2004  0.3250 -0.6391
    6MOL    C1610956   2.954   4.551   3.853 -0.3841  0.0991 -0.5086
    6MOL    C1710957   2.874   4.592   3.743 -0.2419 -0.4083  0.2088
    6MOL    C1810958   2.835   4.489   3.651  0.0008  0.5541 -0.3603
    6MOL    C1910959   3.007   4.419   3.861 -0.8019 -0.4034  0.8255
    6MOL    C2010960   2.888   4.360   3.660  0.0384 -0.5516  0.2005
    6MOL    C2110961   2.972   4.318   3.766 -0.2660 -0.0768 -0.0245
    6MOL    C2210962   2.987   4.642   3.977 -0.3713 -0.7294 -0.1061
    6MOL    C2310963   2.911   4.780   3.969 -0.8407 -0.6667 -0.3037
    6MOL     F110964   2.925   4.849   4.089 -1.2243  0.0793  0.5943
    6MOL     F210965   2.776   4.767   3.966  0.2010 -0.5950 -0.4728
    6MOL     F310966   2.956   4.871   3.876 -0.3140 -0.3458 -0.1588
    6MOL    C2410967   3.140   4.673   3.982  0.2258 -0.5111  0.5417
    6MOL     F410968   3.183   4.718   3.860 -0.1235  0.4049 -0.6476
    6MOL     F510969   3.210   4.560   4.015 -0.0527 -0.3203 -0.7488
    6MOL     F610970   3.178   4.764   4.074 -0.3344 -0.3015 -0.4394
    6MOL     O210971   2.574   4.327   4.153 -0.0081 -0.3854 -0.0899
    6MOL    C2510972   2.736   4.488   3.542 -0.3209  0.1926  0.3569
    6MOL     N410973   2.746   4.364   3.482 -0.5932 -0.7390 -0.5713
    6MOL    C2610974   2.835   4.282   3.545  0.3099 -0.5239  0.0174
    6MOL     O310975   2.851   4.168   3.510 -0.4490 -0.4385  0.3449
    6MOL    C2710976   2.347   3.783   4.334 -0.0303 -0.0567 -0.4034
    6MOL    C2810977   2.484   3.767   4.338  0.2082  0.0390 -0.3803
    6MOL    C2910978   2.283   3.794   4.211 -0.2771  0.1514  0.6366
    6MOL    C3010979   2.560   3.777   4.227 -0.1464  0.4522  0.2376
    6MOL    C3110980   2.356   3.794   4.089  0.4638  0.6009  0.2661
    6MOL    C3210981   2.492   3.787   4.103  0.7807 -0.3824 -0.2971
    6MOL    C3310982   2.569   3.799   3.993  0.1671 -0.6736  0.0611
    6MOL     N510983   2.559   3.723   3.874 -0.2412 -0.2800  0.0336
    6MOL     N610984   2.629   3.924   3.957  0.1374 -0.3294  0.1831
    6MOL    C3410985   2.636   3.791   3.779  0.2390  0.3725  0.1918
    6MOL    C3510986   2.672   3.905   3.824  0.3745 -0.3576  0.3317
    6MOL    C3610987   2.594   4.056   4.017  0.0937 -0.4989  0.0690
    6MOL     H110988   2.590   4.120   3.931  1.7839  0.4447  0.2195
    6MOL     H210989   2.673   4.073   4.091 -1.3488  0.8951 -2.8438
    6MOL     H310990   2.493   4.053   4.064 -3.4165  2.1475 -1.7369
    6MOL    C3710991   2.484   3.605   3.870 -0.4171 -0.2669  0.0362
    6MOL    C3810992   2.367   3.590   3.798  0.1929 -0.0659  0.1973
    6MOL    C3910993   2.269   3.495   3.831 -0.2680  0.5422  0.5729
    6MOL    C4010994   2.282   3.431   3.954 -0.0534  0.6481 -0.1911
    6MOL    C4110995   2.406   3.440   4.026 -0.7664  0.1455  0.4005
    6MOL    C4210996   2.514   3.514   3.978 -0.0656  0.1632  0.2749
    6MOL    C4310997   2.745   4.017   3.745 -0.8542  0.5260 -0.9434
    6MOL     F710998   2.778   4.135   3.812 -0.5707  0.7333  0.3166
    6MOL     F810999   2.659   4.048   3.646 -0.2729  0.3114 -0.0283
    6MOL     F911000   2.859   3.967   3.687 -0.1437  0.0659  0.0257
    6MOL    C4411001   2.192   3.916   4.629 -0.5656  0.1231  0.4094
    6MOL    C4511002   2.154   3.790   4.636 -0.1176  0.4355  0.1893
    6MOL    C4611003   2.066   3.734   4.745 -0.1040  0.0840 -0.3117
    6MOL    F1011004   2.147   3.707   4.851 -0.0232 -0.7642  0.0881
    6MOL    F1111005   1.958   3.822   4.773  0.0420 -0.7423  0.0113
    6MOL     H411006   2.177   3.989   4.697 -1.4985 -0.6410 -0.2479
    6MOL     H511007   2.521   3.908   4.542  2.0020  1.9559 -1.1349
    6MOL     H611008   2.694   4.076   4.504  1.2747  2.6392  1.1458
    6MOL     H711009   2.216   4.183   4.417  2.3942  2.1995 -3.3687
    6MOL     H811010   2.401   4.358   4.361  2.2622  0.4590 -3.0792
    6MOL     H911011   2.778   4.455   4.004 -1.3840 -2.3855 -0.3329
    6MOL    H1011012   3.105   4.635   4.243 -1.0486  2.4390 -0.1403
    6MOL    H1111013   3.019   4.519   4.433 -0.4109  2.5850  1.5442
    6MOL    H1211014   3.070   4.397   3.953  1.6661 -0.7722 -0.4158
    6MOL    H1311015   2.835   4.689   3.728  0.1468 -2.1391 -0.1869
    6MOL    H1411016   3.010   4.218   3.771 -1.4070 -0.9913 -0.1369
    6MOL     O411017   2.660   4.574   3.504 -0.1323 -0.1270  0.2857
    6MOL    H1511018   2.523   3.742   4.441  1.2024 -0.0225 -0.9016
    6MOL    H1611019   2.661   3.777   4.238  2.0612  1.3007  0.4758
    6MOL    H1711020   2.175   3.819   4.205 -2.7597 -0.9735  0.8632
    6MOL    H1811021   2.185   3.474   3.761  0.4427  3.0378  0.5030
    6MOL    H1911022   2.348   3.652   3.712  0.8937  3.3648  1.2709
    6MOL    H2011023   2.424   3.382   4.114 -0.1728 -1.9819 -3.0206
    6MOL    H2111024   2.609   3.525   4.033  1.7756  2.0089 -1.1495
    6MOL    H2211025   2.657   3.748   3.685  0.6903 -3.1337 -0.8369
    6MOL    H2311026   2.300   3.809   3.992  1.9415  0.5628 -2.8962
    6MOL    F1211027   1.998   3.622   4.718  0.2771 -0.2099  0.2526
    6MOL    C4711028   2.204   3.581   4.504 -0.9371 -0.5691  0.1667
    6MOL    H2411029   2.109   3.531   4.492  1.1331  0.6591 -2.5270
    6MOL    H2511030   2.259   3.541   4.590  0.5670  2.3139  0.6921
    6MOL    H2611031   2.264   3.572   4.416  0.6924  1.7860  1.0054
    6MOL     N111032   2.089   3.769   3.724  0.1327 -0.6293 -0.4393
    6MOL     N211033   2.173   3.960   3.826 -0.0990  0.1756 -0.6494
    6MOL     C111034   2.185   3.878   3.710  0.3764 -0.1386 -0.1398
    6MOL     C211035   2.227   4.089   3.839  0.1552  0.1042 -0.8867
    6MOL     C311036   2.355   4.115   3.781  0.6808 -0.3668  0.2554
    6MOL     C411037   2.402   4.250   3.796  0.2823 -0.4569 -0.1174
    6MOL     C511038   2.316   4.353   3.837 -0.3810 -0.0136  0.0986
    6MOL     C611039   2.189   4.327   3.889  0.8223  0.2344  0.1647
    6MOL     C711040   2.146   4.195   3.889 -0.0116  0.5787  0.0258
    6MOL     N311041   2.345   4.490   3.814 -0.4310 -0.0258 -0.6062
    6MOL     C811042   2.270   4.570   3.729 -0.2503 -0.1752 -0.6929
    6MOL     C911043   2.321   4.709   3.749  0.5778 -0.4361  0.0730
    6MOL    C1011044   2.430   4.705   3.840 -0.3613  0.4056  0.1294
    6MOL    C1111045   2.442   4.560   3.885 -0.0480  0.1464 -0.0725
    6MOL     O111046   2.513   4.518   3.976 -0.4811 -0.2393  0.1380
    6MOL    C1211047   2.272   4.820   3.701 -0.0394 -0.4587 -0.0389
    6MOL    C1311048   2.327   4.943   3.744 -0.2943  0.2748  0.1228
    6MOL    C1411049   2.425   4.944   3.845  0.2478 -0.2969 -0.0058
    6MOL    C1511050   2.471   4.822   3.902 -0.5841 -0.6530 -0.2992
    6MOL    C1611051   2.252   5.051   3.531  0.0675 -0.4925  0.9168
    6MOL    C1711052   2.137   5.087   3.447  1.2593  0.1004 -0.3770
    6MOL    C1811053   2.148   5.073   3.303  0.2459  0.1050  0.0727
    6MOL    C1911054   2.366   4.995   3.467 -0.0204 -0.2688 -0.1696
    6MOL    C2011055   2.262   5.026   3.250  0.0883 -0.3598 -0.3621
    6MOL    C2111056   2.369   4.979   3.328 -0.3808  1.2799 -0.6037
    6MOL    C2211057   2.262   5.071   3.686  0.9109 -0.5714  0.0514
    6MOL    C2311058   2.120   5.096   3.751 -0.7575 -0.0788 -0.1106
    6MOL     F111059   2.137   5.081   3.889  0.2358 -0.2663 -0.9484
    6MOL     F211060   2.028   5.009   3.712  0.4916  0.2632 -0.1013
    6MOL     F311061   2.066   5.220   3.730 -0.6595  0.0712  0.4709
    6MOL    C2411062   2.349   5.198   3.704 -0.0577 -1.0777 -0.3078
    6MOL     F411063   2.320   5.299   3.619  0.4876  0.1453  0.1930
    6MOL     F511064   2.482   5.170   3.674 -0.5661 -0.3016  0.2632
    6MOL     F611065   2.361   5.239   3.828  0.4894  0.0307 -0.1259
    6MOL     O211066   2.176   4.529   3.662  0.6488 -0.0565  0.2186
    6MOL    C2511067   2.055   5.112   3.195 -0.0055 -0.6834 -0.0067
    6MOL     N411068   2.120   5.078   3.080  0.6449 -0.0414 -0.0669
    6MOL    C2611069   2.235   5.009   3.105 -0.0276 -0.4958 -0.3848
    6MOL     O311070   2.311   4.954   3.029  0.4041  0.4765  0.2181
    6MOL    C2711071   2.254   3.896   3.593 -0.5983 -0.3698  0.1992
    6MOL    C2811072   2.390   3.856   3.579  0.1630 -0.1365  0.4207
    6MOL    C2911073   2.179   3.948   3.486  0.3662 -0.0644  0.5667
    6MOL    C3011074   2.455   3.883   3.458  0.1291  0.0166 -0.7684
    6MOL    C3111075   2.242   3.969   3.363 -0.4924 -0.2856 -0.7898
    6MOL    C3211076   2.376   3.928   3.346 -0.1416  0.2261  0.8628
    6MOL    C3311077   2.426   3.923   3.217 -0.6027 -0.0119 -0.2963
    6MOL     N511078   2.451   4.045   3.142  0.6626  0.3890  0.0599
    6MOL     N611079   2.351   3.839   3.128 -0.4786  0.4195  0.8955
    6MOL    C3411080   2.392   4.028   3.015  0.1775  0.5223  0.6466
    6MOL    C3511081   2.330   3.905   3.007 -0.2609  0.4389  0.3183
    6MOL    C3611082   2.300   3.706   3.167 -0.1656 -0.4375  0.2514
    6MOL     H111083   2.367   3.632   3.114  2.8922  1.5639 -1.2664
    6MOL     H211084   2.193   3.693   3.144  0.6054  0.9343  0.5835
    6MOL     H311085   2.308   3.689   3.286  1.0880 -2.2739 -0.4138
    6MOL    C3711086   2.507   4.155   3.203  0.5071 -0.4928  0.9672
    6MOL    C3811087   2.443   4.231   3.303 -0.9854 -0.1596 -0.7594
    6MOL    C3911088   2.518   4.312   3.393 -0.7000 -0.0154  0.0838
    6MOL    C4011089   2.660   4.312   3.384  0.7692  0.6862 -0.5041
    6MOL    C4111090   2.723   4.253   3.268 -0.7343  0.0702 -0.2622
    6MOL    C4211091   2.646   4.177   3.185 -0.2352 -0.1994  0.3197
    6MOL    C4311092   2.255   3.841   2.893 -0.0416  0.4570 -0.0490
    6MOL     F711093   2.283   3.711   2.874 -0.5118  0.3951  0.4406
    6MOL     F811094   2.277   3.891   2.775  0.0079  0.7081 -0.0002
    6MOL     F911095   2.124   3.843   2.908 -0.2138  0.4142  0.1993
    6MOL    C4411096   2.060   3.906   3.891 -0.1350  0.1901  0.2383
    6MOL    C4511097   2.005   3.802   3.833 -0.5813  0.0260  0.1902
    6MOL    C4611098   1.887   3.717   3.873  0.6988  0.9909 -0.1358
    6MOL    F1011099   1.816   3.679   3.772  0.4373  0.3813  0.4204
    6MOL    F1111100   1.925   3.606   3.945  0.0844 -0.0427 -0.3746
    6MOL     H411101   2.022   3.944   3.991 -1.6061 -2.3274 -1.5973
    6MOL     H511102   2.416   4.037   3.745 -2.7261 -0.1626  0.5091
    6MOL     H611103   2.504   4.274   3.759  1.2727  2.2083 -0.1874
    6MOL     H711104   2.045   4.171   3.926 -1.4389  1.4175 -0.4602
    6MOL     H811105   2.115   4.409   3.917 -2.0036  1.5175 -0.3533
    6MOL     H911106   2.191   4.818   3.632 -1.9041 -0.2006 -0.0666
    6MOL    H1011107   2.463   5.036   3.880  1.2655 -0.5625 -1.9768
    6MOL    H1111108   2.537   4.822   3.987 -1.5736  0.8500 -1.6200
    6MOL    H1211109   2.454   4.968   3.534 -1.3005 -0.8925  1.6061
    6MOL    H1311110   2.045   5.123   3.487 -0.0541 -2.5603  2.2659
    6MOL    H1411111   2.447   4.928   3.277 -3.9390 -0.8784  1.2218
    6MOL     O411112   1.956   5.178   3.199  0.8065  0.0994 -0.0779
    6MOL    H1511113   2.434   3.813   3.674  2.1387 -0.2573 -0.4551
    6MOL    H1611114   2.559   3.851   3.439 -0.0373  0.4040  0.8417
    6MOL    H1711115   2.076   3.976   3.497 -0.6300  0.7311 -0.6107
    6MOL    H1811116   2.469   4.361   3.477  0.7187  0.0533  1.6574
    6MOL    H1911117   2.333   4.218   3.309  0.3194 -1.7123  0.4574
    6MOL    H2011118   2.829   4.263   3.247 -2.3667 -2.2251 -0.3798
    6MOL    H2111119   2.699   4.123   3.109 -0.2377  0.1696  1.4837
    6MOL    H2211120   2.409   4.102   2.935 -1.7848  1.8737 -0.7489
    6MOL    H2311121   2.175   3.976   3.277 -1.8339  0.9463 -1.9308
    6MOL    F1211122   1.794   3.781   3.937 -0.4507 -0.3648  0.7543
    6MOL    C4711123   2.059   3.679   3.609  0.1303  0.0408 -0.0463
    6MOL    H2411124   1.985   3.721   3.541  0.5685 -0.2248 -0.0351
    6MOL    H2511125   2.005   3.590   3.646  0.3476 -2.9853 -3.0897
    6MOL    H2611126   2.151   3.668   3.557  0.3183 -1.4866  2.1709
    6MOL     N111127   2.301   4.724   2.261  0.2101  0.3691  0.3313
    6MOL     N211128   2.238   4.798   2.059  0.8529 -0.3593  0.2911
    6MOL     C111129   2.226   4.822   2.196 -0.2906  0.5376 -0.6179
    6MOL     C211130   2.127   4.798   1.969 -0.7842 -0.0962  0.3356
    6MOL     C311131   2.027   4.893   1.978 -0.1251 -0.5478  0.4062
    6MOL     C411132   1.902   4.868   1.917 -0.4711  0.7468  0.4538
    6MOL     C511133   1.888   4.748   1.840  0.5905 -0.0119 -0.9117
    6MOL     C611134   1.996   4.665   1.804 -0.2692  0.3473 -0.5040
    6MOL     C711135   2.120   4.697   1.869  0.0664 -0.8536  0.3703
    6MOL     N311136   1.767   4.675   1.847 -0.5216  0.2923  0.5879
    6MOL     C811137   1.696   4.629   1.738  0.2743  0.4791  0.9842
    6MOL     C911138   1.596   4.528   1.797 -0.1025 -0.6469 -0.6153
    6MOL    C1011139   1.613   4.526   1.934 -0.0307  0.1845 -0.4931
    6MOL    C1111140   1.715   4.629   1.968  0.4234 -0.0959 -0.4097
    6MOL     O111141   1.744   4.671   2.080  0.6728  0.1371  0.4736
    6MOL    C1211142   1.509   4.438   1.730  0.3212  0.0571  0.2142
    6MOL    C1311143   1.443   4.348   1.814  0.2037  0.4226 -0.4116
    6MOL    C1411144   1.447   4.359   1.959  0.0353 -0.0327 -0.1982
    6MOL    C1511145   1.534   4.450   2.022  0.2566  0.2130 -0.3291
    6MOL    C1611146   1.413   4.108   1.842  1.0677 -0.2144  0.7629
    6MOL    C1711147   1.334   4.044   1.940 -0.0298  0.8794  0.4244
    6MOL    C1811148   1.396   3.955   2.024 -0.2862  0.9989 -0.2910
    6MOL    C1911149   1.553   4.072   1.833  0.0127  0.0816  0.1109
    6MOL    C2011150   1.527   3.925   2.020 -0.0168 -0.4649 -0.2011
    6MOL    C2111151   1.612   3.988   1.929  0.0144 -0.1938  0.4516
    6MOL    C2211152   1.361   4.224   1.756 -0.2408 -0.4329  0.1396
    6MOL    C2311153   1.209   4.251   1.766  0.1840  0.2645 -0.1674
    6MOL     F111154   1.182   4.360   1.688  0.0307 -0.1312  0.3834
    6MOL     F211155   1.180   4.293   1.890 -0.0553  0.2000  0.3759
    6MOL     F311156   1.133   4.145   1.732 -0.0292  0.1770  0.1844
    6MOL    C2411157   1.393   4.199   1.603  0.1432  0.1754  0.0546
    6MOL     F411158   1.324   4.092   1.565 -0.3368  0.3553 -0.0637
    6MOL     F511159   1.521   4.197   1.570  0.0712 -0.0304  0.0113
    6MOL     F611160   1.344   4.298   1.519 -0.3506 -0.5500  0.6591
    6MOL     O211161   1.717   4.651   1.620  0.4598 -0.1931 -0.3259
    6MOL    C2511162   1.345   3.903   2.155 -0.4383 -0.7111  0.0773
    6MOL     N411163   1.457   3.846   2.222  0.5935  0.8162 -0.0214
    6MOL    C2611164   1.568   3.855   2.145  0.3954 -0.7418 -0.2335
    6MOL     O311165   1.675   3.814   2.185  0.0757 -0.3131  0.4759
    6MOL    C2711166   2.140   4.913   2.259  0.3422 -0.8126  0.2217
    6MOL    C2811167   2.156   5.051   2.230 -0.4869  0.3237  0.2379
    6MOL    C2911168   2.048   4.880   2.356 -0.3274 -0.4830  0.3625
    6MOL    C3011169   2.083   5.149   2.294  0.2444  0.5669 -0.1275
    6MOL    C3111170   1.975   4.984   2.419 -0.4557  0.6059 -0.3842
    6MOL    C3211171   1.990   5.118   2.396  0.2064 -1.1440 -0.1238
    6MOL    C3311172   1.908   5.214   2.458  0.4251  0.1454  0.7958
    6MOL     N511173   1.893   5.238   2.597  0.9610 -0.2645 -0.8556
    6MOL     N611174   1.810   5.291   2.398 -0.0138 -0.5669 -0.3254
    6MOL    C3411175   1.778   5.320   2.615  0.2499  0.4561  0.2267
    6MOL    C3511176   1.732   5.349   2.499  0.5360 -0.1575 -0.1760
    6MOL    C3611177   1.812   5.336   2.260 -0.4143 -0.3600 -0.2312
    6MOL     H111178   1.876   5.429   2.257  1.3956  1.7620  0.2567
    6MOL     H211179   1.708   5.359   2.229  1.9411 -0.9886  1.1908
    6MOL     H311180   1.855   5.255   2.198 -0.3698 -2.7890 -0.1256
    6MOL    C3711181   1.961   5.182   2.698 -0.0223  0.0428 -0.8075
    6MOL    C3811182   2.083   5.240   2.744  0.6207 -0.3964 -0.4565
    6MOL    C3911183   2.135   5.202   2.866  0.5066 -0.1886  0.0161
    6MOL    C4011184   2.075   5.102   2.948 -0.1236  0.3370  0.5164
    6MOL    C4111185   1.959   5.035   2.900 -0.1801  0.0539 -0.5741
    6MOL    C4211186   1.905   5.075   2.777  0.9240  0.5944  1.1277
    6MOL    C4311187   1.626   5.447   2.468 -0.1013  0.6070 -0.1875
    6MOL     F711188   1.665   5.560   2.397  0.5484  0.1939 -0.2006
    6MOL     F811189   1.569   5.475   2.591 -0.0664 -0.2498  0.6463
    6MOL     F911190   1.530   5.387   2.391 -0.3443  0.1890  0.4898
    6MOL    C4411191   2.352   4.717   2.046  0.1895  0.9222  0.1677
    6MOL    C4511192   2.387   4.672   2.166  0.3106 -1.4282 -0.9550
    6MOL    C4611193   2.488   4.567   2.211 -0.0588  0.1488  0.7130
    6MOL    F1011194   2.425   4.468   2.278  0.2256  0.3324  0.2724
    6MOL    F1111195   2.547   4.505   2.109 -0.4779  0.1764  0.3915
    6MOL     H411196   2.398   4.710   1.951 -1.3040  3.7139  1.8168
    6MOL     H511197   2.033   4.986   2.044 -1.4055  0.4013  1.4062
    6MOL     H611198   1.818   4.933   1.936 -1.0840  1.2573  0.8692
    6MOL     H711199   2.202   4.627   1.859 -0.3756  1.8058  0.7577
    6MOL     H811200   1.979   4.580   1.742 -0.4324  0.8554 -1.3949
    6MOL     H911201   1.514   4.426   1.617  0.0632 -0.2476 -0.1321
    6MOL    H1011202   1.391   4.283   2.016  0.0213 -0.0977  0.4599
    6MOL    H1111203   1.546   4.449   2.128  0.9638 -2.2787 -0.1868
    6MOL    H1211204   1.611   4.126   1.767  0.8674 -2.5246 -0.0301
    6MOL    H1311205   1.230   4.071   1.952 -1.4360 -0.9004 -1.4560
    6MOL    H1411206   1.720   3.987   1.924  1.5381  0.4102  1.4809
    6MOL     O411207   1.235   3.923   2.207  0.1313 -0.2222 -0.3830
    6MOL    H1511208   2.218   5.074   2.143  1.1812 -1.0611 -0.0786
    6MOL    H1611209   2.089   5.251   2.256  1.2649 -2.0506 -0.1030
    6MOL    H1711210   2.037   4.776   2.390 -0.9848  0.2778 -1.8621
    6MOL    H1811211   2.226   5.257   2.903  0.5240 -0.7975  0.4818
    6MOL    H1911212   2.129   5.326   2.695  2.4552  0.1785  0.2277
    6MOL    H2011213   1.915   4.951   2.965 -2.1013 -0.9021 -1.3695
    6MOL    H2111214   1.811   5.028   2.745 -1.6378 -1.7242  1.2030
    6MOL    H2211215   1.754   5.364   2.711  2.2983  2.6863  2.6293
    6MOL    H2311216   1.919   4.953   2.502  1.5079 -2.2767  1.0414
    6MOL    F1211217   2.593   4.613   2.288  0.1124  0.1644  0.1824
    6MOL    C4711218   2.334   4.745   2.397  0.0427 -0.4911 -0.2639
    6MOL    H2411219   2.412   4.828   2.406  0.6049 -1.2596  0.7552
    6MOL    H2511220   2.383   4.656   2.428 -0.5768  1.0663 -0.7336
    6MOL    H2611221   2.249   4.759   2.461  1.8946  1.9717  0.3172
    6MOL     N111222   1.511   4.315   2.633 -0.5377 -0.3666  0.0652
    6MOL     N211223   1.516   4.415   2.829 -0.7106  0.2752  0.3965
    6MOL     C111224   1.544   4.286   2.769 -0.2937  0.2432  0.1592
    6MOL     C211225   1.516   4.445   2.964  0.0378  0.6643  0.2496
    6MOL     C311226   1.422   4.380   3.043  0.3739 -0.3240  0.2702
    6MOL     C411227   1.429   4.401   3.182 -0.1853  0.2439 -0.1884
    6MOL     C511228   1.538   4.469   3.244 -0.1641  0.0419 -0.6389
    6MOL     C611229   1.633   4.528   3.158  0.0251 -0.2827  0.2986
    6MOL     C711230   1.621   4.523   3.018  0.2479  0.3538 -0.0529
    6MOL     N311231   1.549   4.485   3.381 -0.3700  0.0187  0.2613
    6MOL     C811232   1.564   4.607   3.451  0.9959 -0.5975 -0.0627
    6MOL     C911233   1.552   4.570   3.590  0.1902 -0.1292 -0.2836
    6MOL    C1011234   1.552   4.433   3.603  0.4998  0.3815 -0.1087
    6MOL    C1111235   1.540   4.376   3.463 -0.1852  0.4520 -0.1977
    6MOL     O111236   1.529   4.262   3.424  0.5925  1.0544 -0.3446
    6MOL    C1211237   1.544   4.653   3.703 -0.2522  1.3432 -0.1796
    6MOL    C1311238   1.530   4.596   3.835 -1.1281  0.9492  0.2729
    6MOL    C1411239   1.530   4.454   3.844  0.1818  0.2579  0.1630
    6MOL    C1511240   1.545   4.373   3.730  0.0951 -0.7455  0.1706
    6MOL    C1611241   1.531   4.630   4.089  0.1194  0.2148  0.0184
    6MOL    C1711242   1.661   4.581   4.118  0.4884  0.0745 -0.1950
    6MOL    C1811243   1.685   4.524   4.246 -0.7028 -0.8064  0.3523
    6MOL    C1911244   1.430   4.607   4.188  0.1642  0.0389  0.4492
    6MOL    C2011245   1.587   4.507   4.339  0.6777  0.3840  0.5352
    6MOL    C2111246   1.452   4.540   4.309 -0.2618  0.2625  0.3129
    6MOL    C2211247   1.504   4.700   3.954 -0.0657  0.4336 -0.5804
    6MOL    C2311248   1.603   4.826   3.942  0.6198 -0.3259 -0.1425
    6MOL     F111249   1.735   4.792   3.909  0.2147 -0.5338  0.0711
    6MOL     F211250   1.590   4.892   4.059 -0.7183 -0.2323 -0.1389
    6MOL     F311251   1.575   4.912   3.845 -0.0667 -0.3331 -0.3743
    6MOL    C2411252   1.352   4.751   3.937  0.1392  0.5424 -0.5094
    6MOL     F411253   1.331   4.802   3.812  0.2567  0.2374 -0.0314
    6MOL     F511254   1.300   4.842   4.031  0.3057 -0.0924 -0.4190
    6MOL     F611255   1.261   4.651   3.944 -0.2378  0.1162 -0.0233
    6MOL     O211256   1.583   4.719   3.407  0.4168 -0.1187 -0.0738
    6MOL    C2511257   1.803   4.449   4.295  0.7290 -0.8212  0.8154
    6MOL     N411258   1.772   4.404   4.424 -0.5535 -0.1983  0.1813
    6MOL    C2611259   1.648   4.441   4.462  0.4294  0.5206  0.4082
    6MOL     O311260   1.604   4.411   4.571  0.6388  0.0696 -0.7517
    6MOL    C2711261   1.541   4.157   2.827 -0.0430 -0.5477 -0.6206
    6MOL    C2811262   1.424   4.112   2.883  0.2138  0.3949  0.3664
    6MOL    C2911263   1.652   4.073   2.803  0.0918 -0.0245 -0.0595
    6MOL    C3011264   1.404   3.975   2.907 -0.1329  0.1259  0.0939
    6MOL    C3111265   1.636   3.933   2.826 -0.0266 -0.2384  0.3998
    6MOL    C3211266   1.511   3.883   2.874 -0.7721 -0.1054 -0.1687
    6MOL    C3311267   1.490   3.747   2.871 -0.2694  0.2976  0.5770
    6MOL     N511268   1.497   3.662   2.757  0.5202 -0.5085  0.0197
    6MOL     N611269   1.505   3.670   2.989  0.1641 -0.9810 -0.5118
    6MOL    C3411270   1.505   3.534   2.809  0.2362 -0.0989  0.2974
    6MOL    C3511271   1.509   3.540   2.940 -0.0552  0.1838  1.1969
    6MOL    C3611272   1.580   3.724   3.105  0.6264  0.5120  0.4163
    6MOL     H111273   1.604   3.651   3.186 -0.5701 -0.1385  1.3692
    6MOL     H211274   1.516   3.812   3.139  2.0554  1.4725  2.9471
    6MOL     H311275   1.673   3.777   3.072  0.6107 -2.4493 -2.2677
    6MOL    C3711276   1.469   3.705   2.620 -0.2664 -0.9032  0.1796
    6MOL    C3811277   1.418   3.832   2.592 -0.2939  0.0740  1.0391
    6MOL    C3911278   1.407   3.878   2.459  0.1404  0.5250  0.4148
    6MOL    C4011279   1.459   3.799   2.354 -0.0795 -0.1229 -0.6361
    6MOL    C4111280   1.509   3.674   2.378  0.4886  0.4000  0.5013
    6MOL    C4211281   1.507   3.622   2.509  0.1886  0.5521  0.6279
    6MOL    C4311282   1.516   3.418   3.027 -0.8202  0.4820 -0.1663
    6MOL     F711283   1.544   3.435   3.159  0.0137  0.3249 -0.2569
    6MOL     F811284   1.607   3.328   2.986  0.4504  0.1654  0.0677
    6MOL     F911285   1.396   3.359   3.007 -0.1625  0.4294  0.3836
    6MOL    C4411286   1.470   4.504   2.725  0.4435 -0.0318 -0.5688
    6MOL    C4511287   1.468   4.448   2.610 -0.7957 -0.4239 -0.3989
    6MOL    C4611288   1.407   4.497   2.481  0.4165 -0.6751  0.6827
    6MOL    F1011289   1.305   4.583   2.504  0.1397 -0.4558  0.5682
    6MOL    F1111290   1.508   4.565   2.419  0.8342  0.1361  0.0393
    6MOL     H411291   1.431   4.603   2.753  1.2978 -0.5388 -0.8229
    6MOL     H511292   1.347   4.318   3.000 -1.0858 -1.1385 -1.4880
    6MOL     H611293   1.351   4.345   3.238  1.3431 -0.7912  2.0577
    6MOL     H711294   1.708   4.561   2.961 -0.1834  1.3673  1.1829
    6MOL     H811295   1.723   4.562   3.203 -0.7731 -0.1546  1.0870
    6MOL     H911296   1.540   4.755   3.680  0.6113 -1.8779 -0.0010
    6MOL    H1011297   1.509   4.409   3.947  2.6434 -0.2426  0.7370
    6MOL    H1111298   1.526   4.266   3.730  0.5870 -0.5426  0.5602
    6MOL    H1211299   1.330   4.640   4.173  1.8806 -0.3102 -0.0732
    6MOL    H1311300   1.738   4.589   4.043 -0.9747  1.8055  3.0695
    6MOL    H1411301   1.376   4.524   4.374  1.4111 -1.8364 -1.4063
    6MOL     O411302   1.905   4.436   4.228 -0.6436 -0.5590  0.2363
    6MOL    H1511303   1.344   4.184   2.870 -1.4840 -0.4374  0.4562
    6MOL    H1611304   1.300   3.951   2.937  0.1876 -4.1582 -0.7793
    6MOL    H1711305   1.742   4.112   2.759 -0.3918 -2.7712  2.4483
    6MOL    H1811306   1.372   3.976   2.436  1.5075  2.2606 -0.4570
    6MOL    H1911307   1.381   3.891   2.669  2.3249 -0.4009  1.3176
    6MOL    H2011308   1.529   3.603   2.300 -1.1918  4.3951 -0.5897
    6MOL    H2111309   1.542   3.518   2.516 -2.2116 -2.3533 -3.3105
    6MOL    H2211310   1.520   3.447   2.740  0.7501 -1.5989 -0.9862
    6MOL    H2311311   1.724   3.877   2.793 -1.3827 -2.2235 -0.2859
    6MOL    F1211312   1.367   4.404   2.391  0.0157  0.2481 -0.0105
    6MOL    C4711313   1.503   4.206   2.534  0.2197 -0.5417 -0.5257
    6MOL    H2411314   1.537   4.238   2.433 -0.7084  1.3719  0.1199
    6MOL    H2511315   1.405   4.174   2.514 -0.4982  2.0400  0.4234
    6MOL    H2611316   1.566   4.131   2.568 -0.4360  2.0922 -1.1648
    6MOL     N111317   1.279   4.264   4.826  0.0925 -0.2789 -0.0395
    6MOL     N211318   1.265   4.121   4.653 -0.3020 -0.0506 -0.1170
    6MOL     C111319   1.358   4.174   4.751 -0.5833 -0.0244  0.4902
    6MOL     C211320   1.290   4.016   4.560 -0.7474  0.1676 -0.1204
    6MOL     C311321   1.227   3.892   4.588  0.6334  0.0670  0.4974
    6MOL     C411322   1.252   3.777   4.506 -0.3338  0.0186  0.8022
    6MOL     C511323   1.352   3.788   4.406  0.9391 -0.2596 -0.8200
    6MOL     C611324   1.404   3.917   4.374  0.2245 -0.6611  0.8170
    6MOL     C711325   1.377   4.029   4.454  0.6721  0.4242 -0.1706
    6MOL     N311326   1.377   3.676   4.327  0.4238  0.1092  0.2928
    6MOL     C811327   1.365   3.671   4.187 -0.1191 -0.4762 -0.2631
    6MOL     C911328   1.420   3.534   4.154 -0.1363  0.1913 -0.3286
    6MOL    C1011329   1.461   3.474   4.269  0.3935 -0.1815  0.5986
    6MOL    C1111330   1.427   3.560   4.389  0.1559 -0.4127  0.4160
    6MOL     O111331   1.437   3.537   4.512 -0.0444 -0.1992 -0.1516
    6MOL    C1211332   1.418   3.462   4.035  0.1815 -0.1023 -0.2852
    6MOL    C1311333   1.472   3.327   4.030 -0.5601 -0.4552 -0.1148
    6MOL    C1411334   1.514   3.267   4.149  0.1475  0.3899 -0.7169
    6MOL    C1511335   1.506   3.339   4.271  0.2285 -0.2326 -0.4929
    6MOL    C1611336   1.543   3.338   3.780  0.3243  0.8853  0.0331
    6MOL    C1711337   1.478   3.415   3.683 -0.3891  0.1010 -0.4954
    6MOL    C1811338   1.553   3.489   3.582  0.3765  0.3639 -0.1394
    6MOL    C1911339   1.689   3.344   3.785 -0.4197 -1.0619  0.0026
    6MOL    C2011340   1.688   3.479   3.579 -0.0695  0.8235  0.7717
    6MOL    C2111341   1.757   3.412   3.683  0.1018  0.1627  0.3881
    6MOL    C2211342   1.463   3.257   3.889  0.1523  0.3685  0.4248
    6MOL    C2311343   1.523   3.110   3.887 -0.3249 -0.5460 -0.2518
    6MOL     F111344   1.531   3.076   3.756  0.3806 -0.3011  0.0170
    6MOL     F211345   1.451   3.026   3.960  0.3119  0.3758 -0.0831
    6MOL     F311346   1.650   3.093   3.930 -0.2005  0.3732  0.0994
    6MOL    C2411347   1.308   3.239   3.845 -0.3964 -0.5438  0.4675
    6MOL     F411348   1.246   3.160   3.931  0.0799 -0.1180 -0.3369
    6MOL     F511349   1.306   3.188   3.717  0.4563  0.1129 -0.1745
    6MOL     F611350   1.241   3.353   3.834 -0.2619 -0.1835 -0.1219
    6MOL     O211351   1.334   3.767   4.118  0.0873 -0.3891 -0.1037
    6MOL    C2511352   1.510   3.578   3.468 -0.0821  0.3034  0.5013
    6MOL     N411353   1.623   3.616   3.402  0.1230  0.1564 -0.2850
    6MOL    C2611354   1.738   3.562   3.466 -0.4516  0.9955  0.0198
    6MOL     O311355   1.848   3.578   3.419  0.5461 -0.4319  0.4445
    6MOL    C2711356   1.492   4.151   4.783  0.7926  0.6836  0.0083
    6MOL    C2811357   1.581   4.252   4.796  0.1986 -0.1456  0.0113
    6MOL    C2911358   1.543   4.020   4.796 -0.0036  0.0764  0.0551
    6MOL    C3011359   1.711   4.233   4.837 -0.8974 -0.7609  0.3919
    6MOL    C3111360   1.674   3.995   4.833  0.7070 -0.4200  0.1147
    6MOL    C3211361   1.755   4.104   4.859 -0.2873  0.1435 -0.0632
    6MOL    C3311362   1.884   4.083   4.904  1.0695 -0.0079 -0.0160
    6MOL     N511363   1.998   4.122   4.827  0.4947 -0.3455 -0.5799
    6MOL     N611364   1.926   4.011   5.016  0.6586  0.3666 -0.4873
    6MOL    C3411365   2.109   4.072   4.912 -0.1752  0.6230  0.5843
    6MOL    C3511366   2.068   4.010   5.019 -0.2170 -0.6879 -0.1252
    6MOL    C3611367   1.843   3.990   5.140  0.1980  0.4523  0.3725
    6MOL     H111368   1.868   4.084   5.204  0.1262 -0.8727 -2.1377
    6MOL     H211369   1.872   3.892   5.183  0.1243 -1.8207 -4.6894
    6MOL     H311370   1.729   3.986   5.113 -2.5670 -0.4194 -0.0441
    6MOL    C3711371   1.984   4.189   4.709  0.1442  0.2498 -0.3089
    6MOL    C3811372   1.996   4.327   4.707  0.2645  0.2454 -0.7279
    6MOL    C3911373   1.943   4.401   4.603  0.1959 -0.2841  0.1463
    6MOL    C4011374   1.861   4.333   4.512  0.1230  0.4225 -0.2527
    6MOL    C4111375   1.854   4.196   4.509  0.2384  0.4852 -0.0749
    6MOL    C4211376   1.926   4.123   4.605  0.3111 -0.7041 -0.2244
    6MOL    C4311377   2.143   3.958   5.146  0.5143  0.5663 -0.0672
    6MOL     F711378   2.131   4.033   5.258  0.2903 -0.2586  0.0602
    6MOL     F811379   2.274   3.947   5.120 -0.0545 -0.1189 -0.0103
    6MOL     F911380   2.112   3.833   5.182  0.2047  0.3329 -0.6749
    6MOL    C4411381   1.146   4.189   4.659  0.2862  1.0919 -0.7142
    6MOL    C4511382   1.153   4.273   4.758  0.1805 -0.1887  0.2216
    6MOL    C4611383   1.048   4.375   4.792  0.1499 -0.4082  0.0037
    6MOL    F1011384   0.979   4.329   4.894 -0.1135 -0.4339 -0.0241
    6MOL    F1111385   1.109   4.497   4.818  0.2863 -0.1545  0.1634
    6MOL     H411386   1.069   4.171   4.588  0.1469 -0.6182 -0.5230
    6MOL     H511387   1.153   3.894   4.666 -0.9648  2.6404  1.3742
    6MOL     H611388   1.198   3.686   4.517  2.7147  1.3329 -0.7819
    6MOL     H711389   1.435   4.122   4.435 -1.9664  0.8906  1.4008
    6MOL     H811390   1.462   3.930   4.288 -0.3459 -0.6296 -1.6389
    6MOL     H911391   1.375   3.513   3.942  1.8933 -0.4747  0.1348
    6MOL    H1011392   1.550   3.164   4.147  4.7661 -2.6443 -0.7365
    6MOL    H1111393   1.522   3.289   4.371  0.6089  2.1992  2.2709
    6MOL    H1211394   1.748   3.286   3.856 -0.3392 -0.5503  0.5498
    6MOL    H1311395   1.366   3.419   3.681 -1.9220 -1.8021  1.8480
    6MOL    H1411396   1.862   3.402   3.677 -0.2955  0.2150 -1.3888
    6MOL     O411397   1.396   3.606   3.435 -0.7834 -0.1997  0.7562
    6MOL    H1511398   1.550   4.352   4.780  3.7638  0.5952  0.8985
    6MOL    H1611399   1.770   4.320   4.847 -1.9506  0.3031  0.2597
    6MOL    H1711400   1.467   3.939   4.776  1.4971 -2.2795  1.3931
    6MOL    H1811401   1.945   4.507   4.599  0.7041  1.6562  0.0466
    6MOL    H1911402   2.044   4.382   4.791  0.4929  0.2107 -1.7680
    6MOL    H2011403   1.792   4.136   4.444 -2.3385 -1.2091  0.6704
    6MOL    H2111404   1.913   4.006   4.604  0.6932 -4.1937  0.6940
    6MOL    H2211405   2.215   4.092   4.881  2.1142  1.9344  0.2739
    6MOL    H2311406   1.718   3.892   4.853  0.8181  1.0150  1.3222
    6MOL    F1211407   0.960   4.399   4.692  0.1075 -0.0158  0.6105
    6MOL    C4711408   1.268   4.243   4.968  0.0799  0.2341 -0.0381
    6MOL    H2411409   1.169   4.207   4.993  3.0569  0.1581  0.7554
    6MOL    H2511410   1.277   4.344   5.014  0.2109  3.0120 -1.5804
    6MOL    H2611411   1.356   4.174   4.999 -1.9738  0.7652 -0.9912
    6MOL    H2711412   1.629   3.674   3.314  0.3022  1.2717 -0.3070
    7MOL     N111413   4.299   2.563   6.742 -0.3190  0.2777  0.3424
    7MOL     N211414   4.097   2.482   6.649 -0.7035  0.8146 -0.3247
    7MOL     C111415   4.231   2.449   6.696 -0.3380  0.2583 -0.5511
    7MOL     C211416   4.014   2.396   6.578 -0.5878 -0.8868  0.6920
    7MOL     C311417   4.004   2.414   6.443  0.1403 -0.0375 -0.0942
    7MOL     C411418   3.939   2.317   6.358  0.3638 -0.1159  0.2823
    7MOL     C511419   3.881   2.205   6.416 -0.3642  0.0555 -0.7459
    7MOL     C611420   3.888   2.190   6.556 -0.4273 -0.0005  0.0238
    7MOL     C711421   3.967   2.276   6.635  0.1453 -0.3418  0.1166
    7MOL     N311422   3.820   2.108   6.340 -0.8667 -0.0030  0.1958
    7MOL     C811423   3.878   1.989   6.318  0.3363 -0.2413 -0.1350
    7MOL     C911424   3.792   1.929   6.215  0.0006  0.2953 -0.1844
    7MOL    C1011425   3.681   2.008   6.196  0.6462  0.2554  0.1041
    7MOL    C1111426   3.698   2.129   6.281  0.0040 -0.1423  0.1908
    7MOL     O111427   3.629   2.227   6.311  0.0429  0.4551 -0.1043
    7MOL    C1211428   3.812   1.805   6.151 -0.2402  0.1887  0.3173
    7MOL    C1311429   3.706   1.762   6.066  0.4303  0.1342 -0.1512
    7MOL    C1411430   3.595   1.847   6.045  0.1935  0.5194 -0.0005
    7MOL    C1511431   3.582   1.972   6.103 -0.0888 -0.7912 -0.4181
    7MOL    C1611432   3.582   1.555   6.080  0.3520  0.8571 -0.0031
    7MOL    C1711433   3.503   1.460   6.009 -0.1705 -0.3291 -0.2202
    7MOL    C1811434   3.403   1.390   6.081  0.7584 -0.9509 -1.1435
    7MOL    C1911435   3.558   1.566   6.222 -0.3063  0.4351  0.3379
    7MOL    C2011436   3.379   1.417   6.216 -0.4303 -0.5710 -0.0729
    7MOL    C2111437   3.458   1.497   6.290 -0.3543  0.4096 -0.3833
    7MOL    C2211438   3.697   1.628   6.000  0.0535  0.0421  0.0305
    7MOL    C2311439   3.679   1.645   5.849 -0.0920  0.6785  0.2360
    7MOL     F111440   3.762   1.747   5.798 -0.0138  0.2742 -0.1117
    7MOL     F211441   3.554   1.681   5.815 -0.3139 -0.4190 -0.1877
    7MOL     F311442   3.708   1.535   5.777 -0.5397 -0.0901 -0.5054
    7MOL    C2411443   3.824   1.541   6.028  0.8080 -0.3115  0.0986
    7MOL     F411444   3.934   1.592   5.967  0.2815  0.8408 -0.1986
    7MOL     F511445   3.809   1.411   5.987 -0.2484  0.1696  0.0248
    7MOL     F611446   3.847   1.526   6.160 -0.3430  0.4538  0.2718
    7MOL     O211447   3.972   1.947   6.382 -0.2488  0.7076  0.0885
    7MOL    C2511448   3.301   1.291   6.036  0.0622 -0.2912 -0.2826
    7MOL     N411449   3.220   1.254   6.146 -0.0905  0.5751  0.0701
    7MOL    C2611450   3.264   1.323   6.257 -0.0171  0.2989 -0.7171
    7MOL     O311451   3.215   1.317   6.366 -0.8961  0.2647  0.2019
    7MOL    C2711452   4.287   2.329   6.667 -0.8594  0.0976 -0.4486
    7MOL    C2811453   4.297   2.230   6.766  0.0404  0.4193 -0.2775
    7MOL    C2911454   4.320   2.296   6.535  0.1056  0.5231 -0.2029
    7MOL    C3011455   4.316   2.095   6.726 -0.3943 -0.1267 -0.7442
    7MOL    C3111456   4.348   2.166   6.497  0.1240  0.2544  0.7529
    7MOL    C3211457   4.336   2.062   6.591 -0.5161  0.0088  0.0692
    7MOL    C3311458   4.345   1.932   6.538 -0.5422 -0.7375 -0.7438
    7MOL     N511459   4.451   1.884   6.453 -0.2719 -0.1498 -0.4337
    7MOL     N611460   4.249   1.832   6.545 -0.7606 -0.0882  0.1453
    7MOL    C3411461   4.413   1.750   6.422 -0.0478 -0.2130 -0.3207
    7MOL    C3511462   4.294   1.723   6.471 -0.1287  0.2182  0.2473
    7MOL    C3611463   4.140   1.816   6.643  0.5490 -0.6644 -0.6807
    7MOL     H111464   4.110   1.909   6.694  5.0902 -1.5387  1.0024
    7MOL     H211465   4.154   1.740   6.721 -0.2619 -0.8983 -0.3228
    7MOL     H311466   4.060   1.782   6.577 -2.3051 -1.2971 -0.2778
    7MOL    C3711467   4.555   1.958   6.394  0.1375  0.5715  0.9617
    7MOL    C3811468   4.556   1.976   6.253 -0.2628  0.1724 -0.2994
    7MOL    C3911469   4.649   2.069   6.204 -0.5171  0.0426 -0.7279
    7MOL    C4011470   4.731   2.143   6.291  0.4781  0.1277 -0.6445
    7MOL    C4111471   4.725   2.122   6.428  0.5936  0.0149  0.7024
    7MOL    C4211472   4.630   2.034   6.479 -0.5589 -0.1898 -0.2245
    7MOL    C4311473   4.217   1.592   6.454  0.2857  0.2102 -0.2217
    7MOL     F711474   4.101   1.617   6.382  0.6357 -0.4541  0.5887
    7MOL     F811475   4.180   1.539   6.575 -0.0730 -0.5692  0.6738
    7MOL     F911476   4.285   1.501   6.385 -0.3055  0.2899  0.4687
    7MOL    C4411477   4.108   2.621   6.631  0.0541 -0.4036 -0.4043
    7MOL    C4511478   4.224   2.669   6.681  0.1414 -0.5942  0.1879
    7MOL    C4611479   4.296   2.801   6.665  0.0347  0.1195 -0.2408
    7MOL    F1011480   4.352   2.846   6.778 -0.0361  0.1388 -0.1470
    7MOL    F1111481   4.388   2.791   6.568  0.0843 -0.1784  0.0751
    7MOL     H411482   4.025   2.681   6.585  0.4191  0.3342 -1.6051
    7MOL     H511483   4.048   2.502   6.395  2.2001  1.3324 -0.5432
    7MOL     H611484   3.935   2.336   6.248 -2.3900  1.6924  0.9417
    7MOL     H711485   3.981   2.252   6.743  1.0156 -0.3925  1.7462
    7MOL     H811486   3.838   2.095   6.585  3.0349 -2.5263 -1.7985
    7MOL     H911487   3.901   1.745   6.175  1.2692 -0.6938 -0.3619
    7MOL    H1011488   3.502   1.812   5.998 -0.5252  0.8148  0.6474
    7MOL    H1111489   3.507   2.043   6.067  1.1672 -1.3890 -3.5682
    7MOL    H1211490   3.596   1.645   6.280 -0.3198  1.1829 -1.5932
    7MOL    H1311491   3.519   1.437   5.899 -0.3107  2.2608 -0.8945
    7MOL    H1411492   3.444   1.504   6.397  1.2060 -1.5240  1.6154
    7MOL     O411493   3.311   1.240   5.926  0.1557  0.2067 -0.0785
    7MOL    H1511494   4.269   2.255   6.865  1.0727  0.2076  0.6736
    7MOL    H1611495   4.285   2.020   6.795 -0.1754 -0.0993 -2.5565
    7MOL    H1711496   4.303   2.368   6.458  1.6782  1.7217  0.2110
    7MOL    H1811497   4.659   2.087   6.094  1.9123  0.5553 -0.9403
    7MOL    H1911498   4.802   2.222   6.251  2.8247  2.1371  1.0822
    7MOL    H2011499   4.486   1.914   6.197  0.5410 -4.5241 -1.8962
    7MOL    H2111500   4.797   2.174   6.488  1.6235  1.8378 -1.4171
    7MOL    H2211501   4.619   2.021   6.585 -0.8478 -1.4437  0.5997
    7MOL    H2311502   4.472   1.686   6.354  0.8294 -1.5481 -1.1877
    7MOL    H2411503   4.370   2.145   6.394 -0.8210 -2.5337  0.1916
    7MOL    F1211504   4.208   2.897   6.632  0.1669  0.1697  0.3323
    7MOL    C4711505   4.325   2.564   6.887 -0.5392 -0.6052  0.4607
    7MOL    H2511506   4.349   2.466   6.916  0.4825  0.4164 -0.2336
    7MOL    H2611507   4.238   2.597   6.943  2.5881  0.1339 -2.0902
    7MOL    H2711508   4.406   2.635   6.900 -0.2624 -1.3424 -1.6479
    7MOL     N111509   3.188   0.649   5.486  0.4407 -0.2669  0.6158
    7MOL     N211510   3.258   0.463   5.582  0.2398 -0.3644  0.6201
    7MOL     C111511   3.181   0.577   5.602  0.6339 -0.0759 -0.0979
    7MOL     C211512   3.261   0.348   5.654 -0.1989  0.0617 -0.9862
    7MOL     C311513   3.151   0.311   5.745 -0.8875  0.6067  0.4322
    7MOL     C411514   3.145   0.178   5.791  0.0674 -0.9274  0.3692
    7MOL     C511515   3.256   0.092   5.777 -0.3975 -0.2880 -0.2022
    7MOL     C611516   3.372   0.131   5.708  0.6043 -0.0758  0.0732
    7MOL     C711517   3.368   0.255   5.642  0.0845  0.1733 -0.5164
    7MOL     N311518   3.250  -0.035   5.838  0.1278 -0.1144  0.0506
    7MOL     C811519   3.233  -0.045   5.974  0.5578 -0.2062  0.1616
    7MOL     C911520   3.228  -0.192   5.998 -0.9040  0.8093 -0.6994
    7MOL    C1011521   3.263  -0.258   5.882 -0.5303  0.1762  0.4349
    7MOL    C1111522   3.272  -0.157   5.777 -0.4752 -0.4416 -0.2112
    7MOL     O111523   3.280  -0.184   5.655 -0.1013  0.0297 -0.2571
    7MOL    C1211524   3.221  -0.266   6.118  0.5108 -0.0693 -0.8987
    7MOL    C1311525   3.244  -0.406   6.122 -1.0014 -0.6113  0.6510
    7MOL    C1411526   3.275  -0.469   5.993 -0.6391  0.5824 -0.3244
    7MOL    C1511527   3.286  -0.395   5.879  0.4188  0.4112  0.1959
    7MOL    C1611528   3.311  -0.394   6.366  0.1142 -0.4487  0.4554
    7MOL    C1711529   3.418  -0.312   6.331  0.0292 -0.1661  0.1328
    7MOL    C1811530   3.477  -0.228   6.427 -0.3320  0.1675 -0.1036
    7MOL    C1911531   3.269  -0.393   6.493 -0.9493  0.5097 -0.3888
    7MOL    C2011532   3.446  -0.231   6.556  0.1737  0.5074 -0.1358
    7MOL    C2111533   3.334  -0.309   6.590 -0.0110  0.3535 -0.1159
    7MOL    C2211534   3.245  -0.481   6.257  0.4080 -0.2189  0.6507
    7MOL    C2311535   3.092  -0.505   6.278  0.2341 -0.4868  0.7474
    7MOL     F111536   3.028  -0.552   6.175 -0.1114  0.1984  0.4615
    7MOL     F211537   3.021  -0.393   6.319 -0.2640 -0.1976 -0.1680
    7MOL     F311538   3.071  -0.592   6.380  0.3049 -0.1408  0.7482
    7MOL    C2411539   3.320  -0.616   6.248  0.2432  0.1493  0.4186
    7MOL     F411540   3.320  -0.673   6.366  0.1193  0.5349 -0.1641
    7MOL     F511541   3.447  -0.606   6.207  0.6373  0.5691 -0.1309
    7MOL     F611542   3.259  -0.708   6.166 -0.1317 -0.0861  0.2623
    7MOL     O211543   3.233   0.045   6.052 -0.2776 -0.2046 -0.4851
    7MOL    C2511544   3.576  -0.120   6.407 -0.9373  0.1460 -0.3880
    7MOL     N411545   3.606  -0.068   6.533  0.4096 -0.6530  0.0985
    7MOL    C2611546   3.522  -0.130   6.628  0.2128 -0.1081 -0.4630
    7MOL     O311547   3.505  -0.097   6.746  0.1861  0.2193  0.1648
    7MOL    C2711548   3.097   0.604   5.709  0.3277 -0.0900  0.3082
    7MOL    C2811549   3.153   0.628   5.836 -0.2728  0.5550  0.0303
    7MOL    C2911550   2.966   0.623   5.685 -0.2823  0.8970 -0.3936
    7MOL    C3011551   3.074   0.646   5.945  0.6385 -0.5492 -0.2841
    7MOL    C3111552   2.887   0.667   5.794  0.8363 -0.1333 -0.1561
    7MOL    C3211553   2.937   0.660   5.927  0.4647  0.0952  0.2174
    7MOL    C3311554   2.856   0.691   6.039 -0.3226  0.1680 -0.1200
    7MOL     N511555   2.862   0.806   6.121 -0.0138 -0.2499  0.2441
    7MOL     N611556   2.756   0.608   6.096 -0.1099  0.2038  0.3929
    7MOL    C3411557   2.735   0.808   6.189 -0.3476  0.4728  0.6858
    7MOL    C3511558   2.680   0.689   6.180 -0.0595 -0.2281  0.0172
    7MOL    C3611559   2.715   0.482   6.033 -0.3051 -0.7615 -0.1392
    7MOL     H111560   2.618   0.443   6.077  0.0743  1.6266 -0.9317
    7MOL     H211561   2.796   0.409   6.041 -0.3555 -1.1063 -2.5995
    7MOL     H311562   2.701   0.504   5.924  1.5705  1.8025  0.6263
    7MOL    C3711563   2.955   0.910   6.124 -0.2751  0.5736  0.2765
    7MOL    C3811564   2.979   0.990   6.009  0.2878 -0.3830  0.0033
    7MOL    C3911565   3.066   1.101   6.026  0.4657 -0.2159  0.2527
    7MOL    C4011566   3.132   1.139   6.141  0.4559  0.1794 -0.1323
    7MOL    C4111567   3.113   1.052   6.246 -0.3980  0.8150 -0.2038
    7MOL    C4211568   3.027   0.941   6.246  0.3196 -0.1934  0.0573
    7MOL    C4311569   2.545   0.655   6.230  0.0409 -0.5998 -0.3422
    7MOL     F711570   2.465   0.568   6.157 -0.0176  0.0713 -0.2641
    7MOL     F811571   2.473   0.766   6.256  0.2014  0.0528  0.1754
    7MOL     F911572   2.568   0.586   6.338  0.1622  0.1466 -0.2651
    7MOL    C4411573   3.311   0.475   5.456 -0.5885  0.3139 -0.6087
    7MOL    C4511574   3.281   0.589   5.401  0.0661  0.6084 -0.6160
    7MOL    C4611575   3.315   0.631   5.254  0.5168 -0.2716  0.0825
    7MOL    F1011576   3.227   0.585   5.155 -0.1381  0.9949 -0.1283
    7MOL    F1111577   3.324   0.768   5.247  0.2322  0.0738  0.4063
    7MOL     H411578   3.367   0.387   5.422 -0.0529 -0.9155  1.1973
    7MOL     H511579   3.068   0.374   5.771  2.4927 -0.7559  0.8144
    7MOL     H611580   3.060   0.145   5.857  1.4628  1.9877 -0.9491
    7MOL     H711581   3.457   0.267   5.571 -0.0323 -1.3882 -1.4769
    7MOL     H811582   3.446   0.061   5.679 -3.1101  5.0526  0.2988
    7MOL     H911583   3.199  -0.208   6.209  0.9400 -0.9513  1.7359
    7MOL    H1011584   3.262  -0.576   5.986 -0.1916  1.9480  2.6750
    7MOL    H1111585   3.305  -0.450   5.791 -0.0817  1.0982 -0.4226
    7MOL    H1211586   3.175  -0.451   6.514 -1.7280 -1.6266 -0.6084
    7MOL    H1311587   3.454  -0.293   6.229  0.0681  1.5152  0.8890
    7MOL    H1411588   3.311  -0.309   6.695  2.1803 -2.0331  0.8188
    7MOL     O411589   3.618  -0.081   6.301 -0.3404 -0.8701  0.3089
    7MOL    H1511590   3.256   0.629   5.844 -4.4054  0.8824 -1.4857
    7MOL    H1611591   3.122   0.656   6.041  0.3595  0.2283  3.5775
    7MOL    H1711592   2.911   0.613   5.589  0.7321  1.9086 -1.9574
    7MOL    H1811593   3.076   1.170   5.940  0.0384  1.0481 -2.5208
    7MOL    H1911594   2.925   0.973   5.913  0.5624 -0.8476 -1.6161
    7MOL    H2011595   3.167   1.081   6.333  0.3064 -1.2517  0.9739
    7MOL    H2111596   3.015   0.885   6.342 -0.6135 -3.4317 -1.6183
    7MOL    H2211597   2.702   0.893   6.242  0.0845  0.1717 -1.4137
    7MOL    H2311598   2.795   0.699   5.776  2.0651  1.8135  0.9758
    7MOL    F1211599   3.433   0.581   5.229  0.6953 -0.1156 -0.1449
    7MOL    C4711600   3.110   0.775   5.470  0.6473  0.2720 -0.4957
    7MOL    H2411601   3.022   0.760   5.405  0.6704 -0.3444  2.0611
    7MOL    H2511602   3.173   0.855   5.436 -0.7925  1.0244 -0.4643
    7MOL    H2611603   3.084   0.814   5.577 -3.5360 -0.8052  2.7982
    7MOL     N111604   3.178   0.043   6.638 -0.2974  0.1137 -0.9195
    7MOL     N211605   3.180  -0.069   6.834 -0.3215 -0.1275 -0.3505
    7MOL     C111606   3.242   0.040   6.769 -0.4951  0.1194  0.2258
    7MOL     C211607   3.196  -0.116   6.970  0.4418  0.0929  0.0446
    7MOL     C311608   3.231  -0.027   7.071  0.7144  0.1927 -0.6543
    7MOL     C411609   3.227  -0.062   7.203  0.0167  0.0215 -0.4996
    7MOL     C511610   3.171  -0.189   7.236 -0.2832  0.5108  0.4013
    7MOL     C611611   3.131  -0.278   7.132  0.4898 -0.5738  0.2322
    7MOL     C711612   3.149  -0.239   6.999 -0.7092  0.1210 -0.9373
    7MOL     N311613   3.182  -0.250   7.362  0.2942  0.4633 -0.6971
    7MOL     C811614   3.289  -0.336   7.384 -0.1191 -0.1308  0.0945
    7MOL     C911615   3.282  -0.370   7.528  0.7776  0.2904  0.0278
    7MOL    C1011616   3.177  -0.300   7.584 -0.2556  0.0008 -0.6058
    7MOL    C1111617   3.103  -0.224   7.478  0.0005  0.4645  0.6882
    7MOL     O111618   3.003  -0.159   7.493 -0.0181  0.1402 -0.0011
    7MOL    C1211619   3.358  -0.457   7.605  0.6751  0.2004  0.5010
    7MOL    C1311620   3.323  -0.482   7.745 -0.5221  0.1596 -0.4414
    7MOL    C1411621   3.230  -0.394   7.804  0.5478  0.4002  0.3992
    7MOL    C1511622   3.159  -0.304   7.722  0.3337 -0.2344 -1.2651
    7MOL    C1611623   3.548  -0.556   7.842 -0.1628  0.1802 -0.3047
    7MOL    C1711624   3.583  -0.418   7.851 -0.1198 -0.2132 -0.4980
    7MOL    C1811625   3.721  -0.388   7.856  0.0257  0.5025  0.8614
    7MOL    C1911626   3.648  -0.661   7.835  0.3054  0.3883 -0.5749
    7MOL    C2011627   3.814  -0.491   7.839 -0.6304  0.2117 -0.9926
    7MOL    C2111628   3.782  -0.624   7.827 -0.4790 -0.4990 -0.0168
    7MOL    C2211629   3.398  -0.593   7.825 -0.0671 -0.0173  0.0464
    7MOL    C2311630   3.343  -0.609   7.972  0.4331 -0.4438  0.0040
    7MOL     F111631   3.414  -0.708   8.038 -0.5012  0.3353  0.8994
    7MOL     F211632   3.217  -0.651   7.958 -0.5218  0.2433 -0.3794
    7MOL     F311633   3.354  -0.497   8.053  0.1371  0.1555 -0.4544
    7MOL    C2411634   3.375  -0.724   7.745  0.2829  0.2372  0.0448
    7MOL     F411635   3.252  -0.726   7.696  0.1052 -0.6295 -0.0399
    7MOL     F511636   3.393  -0.837   7.820 -0.0752 -0.2241  0.3876
    7MOL     F611637   3.450  -0.750   7.637 -0.0024  0.2506  0.2692
    7MOL     O211638   3.369  -0.374   7.299 -0.2224 -0.2048  0.2776
    7MOL    C2511639   3.809  -0.262   7.869  0.0032 -0.2188 -0.1531
    7MOL     N411640   3.941  -0.301   7.845  0.0275  0.2000 -0.1560
    7MOL    C2611641   3.955  -0.432   7.827  0.2053  0.0850  0.2155
    7MOL     O311642   4.057  -0.488   7.787  0.3744  0.3071 -0.1020
    7MOL    C2711643   3.334   0.135   6.813  0.0827 -0.0025  0.5021
    7MOL    C2811644   3.444   0.110   6.893  0.7371  0.1426 -0.5295
    7MOL    C2911645   3.310   0.265   6.774 -0.9278 -0.1680 -0.3376
    7MOL    C3011646   3.541   0.211   6.919  0.4342  0.2469 -0.3974
    7MOL    C3111647   3.405   0.365   6.797 -0.3631 -0.3183 -0.3187
    7MOL    C3211648   3.523   0.342   6.869 -0.5896 -0.4154 -0.0818
    7MOL    C3311649   3.630   0.431   6.854  0.0311 -0.4575  1.1779
    7MOL     N511650   3.715   0.431   6.734 -0.2519 -0.0334  0.3738
    7MOL     N611651   3.639   0.565   6.912 -0.2051  0.3295  0.4854
    7MOL    C3411652   3.784   0.551   6.740  0.2393  0.3880 -0.6304
    7MOL    C3511653   3.744   0.629   6.840  0.3149  0.1865 -0.6034
    7MOL    C3611654   3.618   0.592   7.056  0.6493  0.2110 -0.4788
    7MOL     H111655   3.568   0.689   7.068 -0.5929 -4.0607  0.9615
    7MOL     H211656   3.718   0.593   7.106  0.8025 -0.2613 -0.9555
    7MOL     H311657   3.565   0.515   7.110 -0.3031 -0.1468  2.1758
    7MOL    C3711658   3.738   0.316   6.654  0.2460  0.3909 -0.2299
    7MOL    C3811659   3.800   0.204   6.706 -0.1353  0.3813 -0.1696
    7MOL    C3911660   3.773   0.081   6.643  1.0803  0.0006  0.1016
    7MOL    C4011661   3.664   0.064   6.561  0.4974 -0.2652  0.0766
    7MOL    C4111662   3.611   0.182   6.500  0.1347 -0.1694  0.2688
    7MOL    C4211663   3.651   0.311   6.545  0.0140  0.1283 -0.2417
    7MOL    C4311664   3.789   0.771   6.873  0.4612  0.5700  0.1684
    7MOL     F711665   3.687   0.854   6.929  0.0509 -0.3784  0.0183
    7MOL     F811666   3.830   0.824   6.754  0.0957 -0.2196 -0.3065
    7MOL     F911667   3.897   0.766   6.946  0.3358  0.2641  0.0486
    7MOL    C4411668   3.081  -0.122   6.748 -0.2470  0.2760  0.1449
    7MOL    C4511669   3.083  -0.057   6.635 -0.2788 -0.1706 -0.1750
    7MOL    C4611670   3.003  -0.088   6.509  0.0577  0.4926  0.1157
    7MOL    F1011671   3.060  -0.156   6.409  0.2603 -0.0389  0.1181
    7MOL    F1111672   2.895  -0.163   6.557 -0.2595 -0.0201  0.3979
    7MOL     H411673   3.028  -0.205   6.781 -2.1872  0.2917 -1.1094
    7MOL     H511674   3.271   0.073   7.044  0.1713  0.6766 -1.7253
    7MOL     H611675   3.267   0.005   7.281  0.6927  0.0799  1.8190
    7MOL     H711676   3.132  -0.322   6.927 -1.9088 -2.1702 -0.2278
    7MOL     H811677   3.098  -0.377   7.152  0.0389  2.0197 -0.1148
    7MOL     H911678   3.434  -0.505   7.554  1.5339  1.8322 -0.2648
    7MOL    H1011679   3.214  -0.390   7.911 -0.3762  0.6375  1.4408
    7MOL    H1111680   3.084  -0.244   7.773  0.8748 -2.4855  1.4605
    7MOL    H1211681   3.632  -0.766   7.813  2.6320 -0.3031  2.8312
    7MOL    H1311682   3.509  -0.337   7.863  1.4069  1.3326  2.6911
    7MOL    H1411683   3.864  -0.687   7.796 -0.0907  3.4702 -2.8153
    7MOL     O411684   3.774  -0.144   7.875 -0.5695 -0.0557  0.9781
    7MOL    H1511685   3.450   0.008   6.936  0.0170 -1.8870  1.5721
    7MOL    H1611686   3.623   0.184   6.984 -1.3674 -1.9549  4.4668
    7MOL    H1711687   3.217   0.292   6.718  2.3616 -0.1900  0.9425
    7MOL    H1811688   3.837   0.004   6.683 -0.1540  2.3550 -1.2285
    7MOL    H1911689   3.871   0.208   6.787  0.1451 -0.7841  2.5562
    7MOL    H2011690   3.523   0.172   6.432  1.5984 -1.2909 -0.8048
    7MOL    H2111691   3.591   0.398   6.515  1.9738 -1.2854 -0.4449
    7MOL    H2211692   3.858   0.573   6.671 -3.7053  1.5277 -0.5295
    7MOL    H2311693   3.378   0.468   6.768  0.9306 -0.9864 -1.0096
    7MOL    F1211694   2.954   0.033   6.459 -0.2919  0.3855  0.4465
    7MOL    C4711695   3.256   0.064   6.511  0.7767  0.2557  0.2096
    7MOL    H2411696   3.266   0.170   6.502  0.8992  0.3372  0.7236
    7MOL    H2511697   3.197   0.014   6.427  0.8905 -1.8224 -2.0198
    7MOL    H2611698   3.355   0.012   6.503  2.0446 -0.7022  0.3399
    7MOL     N111699   4.287  -0.733   7.892  0.3135 -0.0109 -0.6720
    7MOL     N211700   4.346  -0.810   7.689  0.6193  0.0978 -0.7564
    7MOL     C111701   4.356  -0.699   7.775  0.3537  0.3659 -0.4023
    7MOL     C211702   4.433  -0.826   7.580  0.4823 -0.2269 -0.6284
    7MOL     C311703   4.430  -0.736   7.473  0.5843 -0.2325 -0.4530
    7MOL     C411704   4.524  -0.748   7.371 -0.1104  0.5955  0.2541
    7MOL     C511705   4.623  -0.846   7.369 -0.1667  0.1194 -0.5949
    7MOL     C611706   4.636  -0.927   7.481 -0.4894 -0.4875  0.1693
    7MOL     C711707   4.540  -0.920   7.589  0.7043 -0.1681  1.0799
    7MOL     N311708   4.710  -0.860   7.254 -0.0349 -0.2834 -0.3780
    7MOL     C811709   4.786  -0.757   7.207  0.6739  0.3497 -0.1279
    7MOL     C911710   4.850  -0.805   7.088  0.3960 -0.7109 -0.1550
    7MOL    C1011711   4.814  -0.935   7.065  0.2464 -0.2044  0.5424
    7MOL    C1111712   4.721  -0.971   7.176  0.1082  0.0770  0.3329
    7MOL     O111713   4.650  -1.070   7.183 -0.0325 -0.3449 -0.3140
    7MOL    C1211714   4.929  -0.738   6.998 -0.2260 -0.3531 -0.5552
    7MOL    C1311715   4.972  -0.811   6.883 -0.9986 -0.0745 -0.8137
    7MOL    C1411716   4.943  -0.952   6.869 -0.3114 -0.5304  0.4569
    7MOL    C1511717   4.853  -1.010   6.956  0.0639  0.0394 -0.0930
    7MOL    C1611718   4.980  -0.607   6.740 -1.0719 -0.3546 -0.1893
    7MOL    C1711719   5.050  -0.494   6.695  0.3374  0.4303  0.4856
    7MOL    C1811720   4.971  -0.389   6.641 -0.2145 -0.2811 -0.0627
    7MOL    C1911721   4.841  -0.609   6.737 -0.0610 -0.1394 -0.6157
    7MOL    C2011722   4.834  -0.399   6.633  0.1207 -0.0567 -0.1467
    7MOL    C2111723   4.765  -0.507   6.681  0.7181  0.4575 -0.8931
    7MOL    C2211724   5.056  -0.738   6.772  0.3121 -0.0037  0.2481
    7MOL    C2311725   5.200  -0.722   6.833 -0.9840  0.2525 -0.0003
    7MOL     F111726   5.202  -0.649   6.946  0.5256  0.1450  0.3736
    7MOL     F211727   5.291  -0.667   6.745 -0.3746 -0.0523  0.0949
    7MOL     F311728   5.248  -0.840   6.875 -0.1042 -0.1034  0.2337
    7MOL    C2411729   5.071  -0.807   6.634 -0.1931  0.4076  0.5452
    7MOL     F411730   5.161  -0.906   6.645  0.0329  0.0655 -0.3557
    7MOL     F511731   5.095  -0.727   6.528 -0.1460  0.1642 -0.7441
    7MOL     F611732   4.959  -0.864   6.599  0.0004 -0.0224  0.0649
    7MOL     O211733   4.800  -0.643   7.247  0.1689  0.1239  0.4307
    7MOL    C2511734   5.011  -0.264   6.567 -1.0550  0.5417 -0.0284
    7MOL     N411735   4.897  -0.218   6.503 -0.0300  0.0122 -0.6718
    7MOL    C2611736   4.792  -0.289   6.538 -0.0329  0.0946 -0.0021
    7MOL     O311737   4.683  -0.259   6.492  0.2900  0.2287 -0.0380
    7MOL    C2711738   4.395  -0.574   7.735 -0.0906  0.0881  0.3307
    7MOL    C2811739   4.307  -0.495   7.656 -0.1381 -0.2764 -0.5451
    7MOL    C2911740   4.525  -0.520   7.765 -0.5796  0.8820  0.5761
    7MOL    C3011741   4.346  -0.379   7.596 -0.0418  0.0939  0.4224
    7MOL    C3111742   4.568  -0.404   7.706 -0.0752  1.1511 -0.0474
    7MOL    C3211743   4.475  -0.322   7.632 -0.2869 -0.3030 -0.0056
    7MOL    C3311744   4.501  -0.185   7.592  0.3799 -0.2058 -0.5243
    7MOL     N511745   4.416  -0.076   7.639 -0.2894 -0.4518 -0.2467
    7MOL     N611746   4.607  -0.131   7.523  0.1548 -0.2079 -0.1434
    7MOL    C3411747   4.473   0.041   7.574  0.4954 -0.5398 -0.6038
    7MOL    C3511748   4.583   0.009   7.502  0.5660  0.4459 -0.7034
    7MOL    C3611749   4.685  -0.208   7.426 -0.3540 -0.2730  0.0890
    7MOL     H111750   4.792  -0.161   7.425 -0.8806  1.4549 -3.3973
    7MOL     H211751   4.635  -0.207   7.330  0.7297 -1.6723 -0.9161
    7MOL     H311752   4.678  -0.312   7.454  0.2038 -0.3570 -1.7845
    7MOL    C3711753   4.293  -0.096   7.705 -0.7665 -0.5690 -0.2489
    7MOL    C3811754   4.298  -0.156   7.832 -0.3450  0.1626 -0.4676
    7MOL    C3911755   4.176  -0.215   7.884 -1.0021  0.4978 -0.3324
    7MOL    C4011756   4.055  -0.216   7.813  0.2105  0.0116 -0.2539
    7MOL    C4111757   4.061  -0.155   7.686 -0.5552  0.2932 -0.4137
    7MOL    C4211758   4.174  -0.093   7.632  0.3718 -0.4648  0.5145
    7MOL    C4311759   4.678   0.102   7.431  0.4406  0.3668 -0.1532
    7MOL     F711760   4.809   0.066   7.456 -0.0179  0.0915  0.5002
    7MOL     F811761   4.656   0.232   7.465 -0.3736 -0.3491  0.0207
    7MOL     F911762   4.648   0.100   7.297  0.2143  0.0005  0.3440
    7MOL    C4411763   4.244  -0.889   7.738 -0.3082 -0.7543  0.0701
    7MOL    C4511764   4.207  -0.845   7.858  0.2983 -0.4799  0.5821
    7MOL    C4611765   4.090  -0.903   7.942 -0.1688  0.8145 -0.3821
    7MOL    F1011766   4.041  -0.826   8.046  0.0065 -0.3157  0.1138
    7MOL    F1111767   3.990  -0.935   7.859 -1.2217  0.3726  0.0287
    7MOL     H411768   4.206  -0.969   7.680  1.7198 -0.7255  0.3187
    7MOL     H511769   4.358  -0.655   7.474  1.6345  2.1881  0.3106
    7MOL     H611770   4.511  -0.680   7.284 -1.7036  1.4681  0.3775
    7MOL     H711771   4.549  -0.982   7.675  0.3195 -1.3946 -1.7551
    7MOL     H811772   4.717  -1.000   7.490  0.8978 -0.7030  1.2586
    7MOL     H911773   4.951  -0.631   7.011  1.5239  0.5679 -0.3814
    7MOL    H1011774   4.982  -1.012   6.781 -2.0610 -0.5175 -1.9700
    7MOL    H1111775   4.821  -1.117   6.944  0.3470 -0.0976 -1.3090
    7MOL    H1211776   4.795  -0.704   6.770 -0.8306  0.2524  1.4579
    7MOL    H1311777   5.154  -0.482   6.672  0.9963  2.7683  3.2309
    7MOL    H1411778   4.654  -0.515   6.673  2.9468 -2.0536  2.8135
    7MOL     O411779   5.128  -0.221   6.559  0.1482 -0.1720 -0.0001
    7MOL    H1511780   4.211  -0.540   7.628  0.7225  0.9730  3.2607
    7MOL    H1611781   4.278  -0.334   7.517 -0.0447  0.6889 -1.2910
    7MOL    H1711782   4.602  -0.580   7.821  2.3679  0.7264 -0.6751
    7MOL    H1811783   4.185  -0.254   7.986  2.3263  0.5171 -0.2517
    7MOL    H1911784   4.388  -0.154   7.888  2.6447  2.5475 -0.2708
    7MOL    H2011785   3.974  -0.153   7.628  0.6871 -1.6050  2.6748
    7MOL    H2111786   4.179  -0.052   7.536  1.7056 -0.4662 -2.2008
    7MOL    H2211787   4.426   0.136   7.583 -0.3227 -0.4445 -2.3045
    7MOL    H2311788   4.670  -0.370   7.715 -0.2681  0.2246  0.3344
    7MOL    F1211789   4.128  -1.016   7.993  0.3277 -0.0557  0.0795
    7MOL    C4711790   4.227  -0.635   7.981 -0.2309  0.0427 -0.3232
    7MOL    H2411791   4.247  -0.673   8.092 -2.3486 -0.0927 -0.7029
    7MOL    H2511792   4.112  -0.636   7.980 -0.0338 -0.1130  1.4633
    7MOL    H2611793   4.269  -0.535   7.964  4.5920  3.0494  0.6782
    7MOL     N111794   4.991  -0.178   5.570  0.1989 -0.0851 -0.2152
    7MOL     N211795   5.087   0.024   5.515 -0.0389 -0.6916  0.3909
    7MOL     C111796   5.001  -0.040   5.613 -0.3494 -0.3637 -0.4644
    7MOL     C211797   5.106   0.164   5.510  0.5176  0.0880 -0.3100
    7MOL     C311798   5.121   0.232   5.630  0.6527  0.0605 -0.4587
    7MOL     C411799   5.096   0.365   5.644  0.3173  0.2909  0.2448
    7MOL     C511800   5.057   0.436   5.531  0.2270 -0.3602  0.0647
    7MOL     C611801   5.049   0.379   5.405  0.1235 -0.7651 -0.7802
    7MOL     C711802   5.064   0.236   5.396  0.1281  0.0600 -0.5320
    7MOL     N311803   5.008   0.569   5.548 -0.5998 -0.5355 -0.3094
    7MOL     C811804   4.884   0.602   5.502 -0.6297  0.3987 -0.2603
    7MOL     C911805   4.839   0.721   5.581 -0.2519  0.2899  0.3519
    7MOL    C1011806   4.943   0.752   5.672  0.8749 -0.0302 -0.3345
    7MOL    C1111807   5.053   0.654   5.650  0.2285 -0.1780  0.5863
    7MOL     O111808   5.158   0.656   5.711 -0.4603 -0.4256 -0.3184
    7MOL    C1211809   4.716   0.790   5.585  0.3359  0.7607 -0.1421
    7MOL    C1311810   4.691   0.884   5.693  0.5797 -0.2030 -0.6995
    7MOL    C1411811   4.802   0.922   5.775 -0.3557  0.4271 -0.0300
    7MOL    C1511812   4.927   0.849   5.767  0.5123  0.0700 -0.2803
    7MOL    C1611813   4.554   0.997   5.877 -0.4525  0.6877  0.0773
    7MOL    C1711814   4.517   0.935   6.004 -0.3663 -0.4317  0.6026
    7MOL    C1811815   4.556   1.000   6.124 -0.1753  0.2733  0.6661
    7MOL    C1911816   4.606   1.129   5.881  0.7852 -0.8976  0.6456
    7MOL    C2011817   4.616   1.121   6.120  0.3935  0.7139  0.3305
    7MOL    C2111818   4.635   1.195   6.005  0.4434 -0.3932 -0.1790
    7MOL    C2211819   4.547   0.920   5.743  0.0777 -0.2808  0.4759
    7MOL    C2311820   4.467   1.001   5.633  0.7204  1.0416 -0.5224
    7MOL     F111821   4.353   1.047   5.689 -0.8684  0.2749  0.0450
    7MOL     F211822   4.425   0.932   5.521  0.4291 -0.3323  0.0493
    7MOL     F311823   4.533   1.111   5.587 -0.1342  0.6627 -0.0430
    7MOL    C2411824   4.463   0.785   5.756 -0.4870 -0.2389  0.1706
    7MOL     F411825   4.441   0.720   5.643  0.0345 -0.2262  0.4514
    7MOL     F511826   4.342   0.807   5.810 -0.1612 -0.2716 -0.0255
    7MOL     F611827   4.528   0.696   5.837  0.8210  0.1389  0.2263
    7MOL     O211828   4.818   0.537   5.423  0.0448  0.4929  0.3306
    7MOL    C2511829   4.547   0.953   6.261  0.0280 -0.1025 -0.5028
    7MOL     N411830   4.615   1.047   6.340  0.5596 -0.1638 -0.4034
    7MOL    C2611831   4.652   1.150   6.263 -0.2480 -0.0128  0.6501
    7MOL     O311832   4.719   1.245   6.309  0.4065 -0.4232  1.0084
    7MOL    C2711833   4.942   0.009   5.732  0.5315  0.8377  0.4123
    7MOL    C2811834   5.024   0.017   5.848  0.5662 -0.1009  0.9060
    7MOL    C2911835   4.818   0.069   5.731 -0.0777 -0.1559 -0.4027
    7MOL    C3011836   4.989   0.110   5.951 -0.1101 -0.0600 -0.8833
    7MOL    C3111837   4.775   0.143   5.841  0.0335  0.6342  0.0516
    7MOL    C3211838   4.861   0.173   5.946 -1.0390  0.2319 -0.1921
    7MOL    C3311839   4.828   0.266   6.049 -0.4562 -0.1403  0.1704
    7MOL     N511840   4.839   0.245   6.190 -0.0449 -0.1091 -0.1247
    7MOL     N611841   4.758   0.390   6.027  0.0107  0.3755 -0.4549
    7MOL    C3411842   4.810   0.373   6.241  0.2860  0.4102 -0.1223
    7MOL    C3511843   4.759   0.455   6.152  0.1786 -0.3653 -0.1544
    7MOL    C3611844   4.760   0.471   5.896  0.1745  1.7198 -0.1941
    7MOL     H111845   4.813   0.573   5.906  0.8665 -2.7988 -1.3655
    7MOL     H211846   4.656   0.489   5.876 -1.9084  1.3973  0.3482
    7MOL     H311847   4.799   0.407   5.819 -0.5118 -0.9575  1.1817
    7MOL    C3711848   4.863   0.128   6.260  0.1229  0.0682  0.3219
    7MOL    C3811849   4.818   0.005   6.210  0.1470 -0.1920 -0.0900
    7MOL    C3911850   4.833  -0.112   6.282 -0.1827  0.0093 -0.5395
    7MOL    C4011851   4.891  -0.107   6.413 -0.1258  0.3467 -0.6427
    7MOL    C4111852   4.937   0.013   6.466 -0.4049 -0.0313  0.6768
    7MOL    C4211853   4.922   0.129   6.388 -0.1110 -0.0162  0.2425
    7MOL    C4311854   4.706   0.598   6.167 -0.1667  0.1894 -0.1948
    7MOL     F711855   4.748   0.683   6.070  0.2615 -0.1120 -0.4215
    7MOL     F811856   4.739   0.654   6.284 -0.7988 -0.0594  0.3377
    7MOL     F911857   4.572   0.606   6.157 -0.7663 -0.6827  0.1912
    7MOL    C4411858   5.103  -0.068   5.414 -0.1427  0.5178  0.3782
    7MOL    C4511859   5.035  -0.180   5.435  0.0582  0.1794 -0.3845
    7MOL    C4611860   5.016  -0.297   5.340  0.8641 -0.3974  0.5348
    7MOL    F1011861   5.083  -0.285   5.223  0.6172 -0.0226  0.1914
    7MOL    F1111862   5.052  -0.412   5.396  0.0435  0.5302 -0.3532
    7MOL     H411863   5.152  -0.026   5.324 -0.0671  1.8255  4.9848
    7MOL     H511864   5.141   0.178   5.729  0.8227 -1.9722 -0.5748
    7MOL     H611865   5.086   0.417   5.735 -3.9676 -3.5791 -1.0591
    7MOL     H711866   5.057   0.182   5.303 -1.6291  1.7788  1.3721
    7MOL     H811867   5.041   0.449   5.323 -1.7639 -0.8342 -2.0489
    7MOL     H911868   4.644   0.752   5.514 -3.2739 -0.7916  0.0983
    7MOL    H1011869   4.797   0.987   5.855  1.5617 -0.6647 -2.5000
    7MOL    H1111870   5.008   0.872   5.834  1.5341  1.3455  1.2773
    7MOL    H1211871   4.630   1.186   5.791 -1.1008 -0.2179 -0.7035
    7MOL    H1311872   4.480   0.834   6.014  3.5032  1.6251 -0.8713
    7MOL    H1411873   4.683   1.294   6.005 -0.6377 -2.2164  1.1601
    7MOL     O411874   4.500   0.846   6.294 -0.6525 -0.6347 -0.6941
    7MOL    H1511875   5.132  -0.014   5.838  1.0056 -0.4152 -0.5890
    7MOL    H1611876   5.060   0.133   6.029  0.5868  1.9478 -0.0603
    7MOL    H1711877   4.764   0.069   5.632 -1.5849 -0.7183 -0.9027
    7MOL    H1811878   4.789  -0.202   6.254  1.6481  0.8006 -1.0658
    7MOL    H1911879   4.769  -0.010   6.115 -1.3512  3.2145  1.6765
    7MOL    H2011880   4.987   0.006   6.567  1.2148  0.9595  1.4435
    7MOL    H2111881   4.960   0.221   6.431 -1.1009 -1.2145  1.0728
    7MOL    H2211882   4.836   0.394   6.347  0.0586 -1.3666  0.2156
    7MOL    H2311883   4.681   0.190   5.840  1.9686 -1.5829  2.9375
    7MOL    F1211884   4.884  -0.321   5.317  0.0274  0.0636  0.2528
    7MOL    C4711885   4.881  -0.257   5.616  0.0087 -0.8044  0.1806
    7MOL    H2411886   4.911  -0.360   5.632 -1.4700  1.0349 -1.7311
    7MOL    H2511887   4.800  -0.259   5.546 -0.7178 -0.8095  2.5266
    7MOL    H2611888   4.848  -0.211   5.708  0.8767 -0.1634 -1.4501
    7MOL     N111889   5.048   1.378   6.237  0.0962 -0.3103  0.3511
    7MOL     N211890   5.185   1.495   6.365  0.2112 -0.1707  0.5091
    7MOL     C111891   5.093   1.395   6.369  0.5934 -1.1975  0.0634
    7MOL     C211892   5.238   1.564   6.477  0.3196 -0.0119  0.6281
    7MOL     C311893   5.160   1.602   6.584  0.2942 -0.3463  0.7477
    7MOL     C411894   5.215   1.670   6.694  0.5745 -0.5063  0.2533
    7MOL     C511895   5.357   1.676   6.704  0.4702 -0.5952  0.0551
    7MOL     C611896   5.437   1.637   6.592 -0.4204 -0.4122 -0.7125
    7MOL     C711897   5.381   1.580   6.479 -0.0604 -0.8240  0.5312
    7MOL     N311898   5.424   1.706   6.826  0.2481 -0.5755 -0.1317
    7MOL     C811899   5.485   1.599   6.880  0.2377 -0.1919 -0.1757
    7MOL     C911900   5.557   1.655   6.994  0.5910  0.4618  0.0910
    7MOL    C1011901   5.539   1.795   7.003 -0.4511  0.2838  0.1424
    7MOL    C1111902   5.456   1.829   6.885 -0.0559 -0.2817 -0.3147
    7MOL     O111903   5.431   1.935   6.842 -0.4166 -0.0334  0.0253
    7MOL    C1211904   5.637   1.587   7.085  0.1752  0.7293  0.5059
    7MOL    C1311905   5.708   1.657   7.188 -0.2361 -0.6285  0.5345
    7MOL    C1411906   5.697   1.799   7.194  0.7299  0.0613  0.2404
    7MOL    C1511907   5.608   1.868   7.102  0.9643 -0.7464  0.3803
    7MOL    C1611908   5.734   1.441   7.322  0.7264  0.0221 -0.4247
    7MOL    C1711909   5.591   1.429   7.321 -0.0624  0.0678  0.6703
    7MOL    C1811910   5.541   1.300   7.339  0.1140  0.1080  0.3144
    7MOL    C1911911   5.811   1.332   7.355  0.5169 -0.5207  0.1563
    7MOL    C2011912   5.623   1.192   7.366  0.5126 -0.5691  0.4617
    7MOL    C2111913   5.762   1.210   7.388  0.4010 -0.2811 -0.4702
    7MOL    C2211914   5.805   1.573   7.278  0.7596  0.3262 -0.4666
    7MOL    C2311915   5.930   1.554   7.184  0.0218 -0.1630 -0.3306
    7MOL     F111916   5.888   1.476   7.084 -0.1464 -0.2443 -0.2034
    7MOL     F211917   6.043   1.497   7.238 -0.9482  0.8208  0.0575
    7MOL     F311918   5.978   1.666   7.138  0.1557  0.5804 -0.3930
    7MOL    C2411919   5.844   1.647   7.410  0.0104 -0.1184  0.4181
    7MOL     F411920   5.957   1.726   7.390 -0.5837 -0.3830  0.1707
    7MOL     F511921   5.875   1.573   7.519 -0.2111  0.0488  0.3597
    7MOL     F611922   5.745   1.728   7.453  0.2075 -0.1570 -0.0667
    7MOL     O211923   5.472   1.478   6.855  0.1953  0.5972 -0.3337
    7MOL    C2511924   5.404   1.249   7.322  0.1408  0.0682 -0.2392
    7MOL     N411925   5.416   1.107   7.335 -0.0975 -0.2806  0.2984
    7MOL    C2611926   5.544   1.067   7.364  0.0124 -0.5657 -0.3725
    7MOL     O311927   5.578   0.949   7.367  0.8636  0.3282 -0.2833
    7MOL    C2711928   5.026   1.358   6.488  0.4765 -0.3882 -0.6588
    7MOL    C2811929   4.891   1.386   6.501  0.3794  0.2251 -0.0207
    7MOL    C2911930   5.098   1.301   6.598 -0.8241  0.1175  0.4930
    7MOL    C3011931   4.829   1.375   6.625  0.8434  0.2265  0.1610
    7MOL    C3111932   5.040   1.293   6.723 -0.1556  0.2146 -0.2204
    7MOL    C3211933   4.904   1.326   6.734 -0.4275 -0.5437  0.8029
    7MOL    C3311934   4.829   1.300   6.847 -0.1420  0.0635 -0.4055
    7MOL     N511935   4.732   1.200   6.858  0.2286  0.2946 -0.2391
    7MOL     N611936   4.875   1.320   6.984  0.2358 -0.4535  0.3380
    7MOL    C3411937   4.731   1.157   6.986 -0.1673  0.2007  0.3416
    7MOL    C3511938   4.813   1.225   7.063  0.0626  0.2731  0.6720
    7MOL    C3611939   4.988   1.401   7.028 -0.1593 -0.4152  0.3045
    7MOL     H111940   5.055   1.330   7.087  0.7051 -3.0292 -0.8950
    7MOL     H211941   4.938   1.469   7.100 -0.0840 -1.8089  0.2535
    7MOL     H311942   5.035   1.458   6.944  1.3646 -0.8129 -1.7623
    7MOL    C3711943   4.689   1.129   6.744 -0.5625  0.0556 -0.2046
    7MOL    C3811944   4.785   1.048   6.673  0.3143  0.2737  0.2801
    7MOL    C3911945   4.754   1.013   6.540  0.7710  0.2875 -0.3747
    7MOL    C4011946   4.631   1.052   6.480 -0.7649  0.1064 -0.7699
    7MOL    C4111947   4.531   1.119   6.555 -0.2884  0.1785 -0.2093
    7MOL    C4211948   4.565   1.162   6.684  0.1125  0.5270  0.1888
    7MOL    C4311949   4.817   1.218   7.210 -0.0956 -0.4477  0.9153
    7MOL     F711950   4.943   1.205   7.246 -0.5147  0.2765  0.1181
    7MOL     F811951   4.737   1.128   7.258  0.2419 -0.1108 -0.1186
    7MOL     F911952   4.771   1.330   7.261  0.1616  0.0513 -0.1323
    7MOL    C4411953   5.207   1.525   6.228 -0.2025  0.0145 -0.0680
    7MOL    C4511954   5.117   1.470   6.158  0.0820  0.0420 -0.6204
    7MOL    C4611955   5.103   1.490   6.007 -0.2501 -0.6235 -0.0464
    7MOL    F1011956   5.135   1.620   5.974 -0.1875  0.1787  0.5616
    7MOL    F1111957   5.197   1.412   5.950  0.0609  0.1583  0.6881
    7MOL     H411958   5.286   1.586   6.191 -0.0926 -1.0052  2.6503
    7MOL     H511959   5.053   1.594   6.571 -0.8897 -1.3609  0.9042
    7MOL     H611960   5.154   1.692   6.787 -0.3021  0.5692  1.2784
    7MOL     H711961   5.448   1.551   6.396  1.9916 -1.8169  1.5817
    7MOL     H811962   5.547   1.639   6.604 -0.0355 -1.4736  0.4890
    7MOL     H911963   5.636   1.483   7.058 -1.0954 -3.1349  0.0967
    7MOL    H1011964   5.758   1.858   7.261 -2.1961  1.4663 -1.2787
    7MOL    H1111965   5.599   1.972   7.104 -0.4206 -1.2984 -0.1791
    7MOL    H1211966   5.917   1.348   7.360 -0.3937  2.2267  2.1274
    7MOL    H1311967   5.531   1.516   7.303 -1.4121 -0.4777  1.1822
    7MOL    H1411968   5.831   1.124   7.404 -2.2719 -0.7510  1.8570
    7MOL     O411969   5.304   1.310   7.283  0.1523  0.4132 -0.1489
    7MOL    H1511970   4.831   1.417   6.413 -2.6709  0.4913 -0.6345
    7MOL    H1611971   4.728   1.398   6.636 -0.7612 -0.2689  0.1225
    7MOL    H1711972   5.199   1.258   6.594  0.4798 -1.3890 -1.2094
    7MOL    H1811973   4.826   0.961   6.481 -3.0676 -0.1340  0.8191
    7MOL    H1911974   4.880   1.023   6.720 -0.1329 -0.9689  1.7301
    7MOL    H2011975   4.435   1.155   6.511  0.5053 -0.7206 -2.6386
    7MOL    H2111976   4.493   1.223   6.740  0.5846  0.9595  0.4986
    7MOL    H2211977   4.659   1.082   7.011  0.0008 -0.5612 -1.3043
    7MOL    H2311978   5.091   1.255   6.808  0.5070  0.8491  0.4315
    7MOL    F1211979   4.986   1.456   5.954 -0.1189  0.1961  0.1566
    7MOL    C4711980   4.989   1.250   6.189 -1.0458  0.5420  0.2094
    7MOL    H2411981   5.039   1.197   6.105 -0.2219 -1.4730 -1.7180
    7MOL    H2511982   4.889   1.266   6.148 -0.9079  0.2646 -0.0435
    7MOL    H2611983   4.989   1.184   6.273  1.8348  0.3141 -1.2571
    7MOL     N111984   4.416   0.944   6.887 -0.2384 -0.4438  0.3091
    7MOL     N211985   4.513   0.762   6.786  0.3013  0.1135  0.3413
    7MOL     C111986   4.546   0.865   6.880  0.2846  0.2577 -0.5368
    7MOL     C211987   4.600   0.657   6.752  0.1420 -0.4095  0.2575
    7MOL     C311988   4.731   0.685   6.729  0.3160 -0.0630  0.0471
    7MOL     C411989   4.832   0.591   6.713 -0.4738 -0.3849 -0.4719
    7MOL     C511990   4.801   0.455   6.724  0.2339  0.1694 -0.2193
    7MOL     C611991   4.660   0.420   6.732  0.1526 -0.1948 -0.5387
    7MOL     C711992   4.565   0.524   6.743 -0.7267 -0.4232  0.1396
    7MOL     N311993   4.909   0.357   6.717  0.2653  0.2737  0.2414
    7MOL     C811994   4.997   0.368   6.613  0.1526  0.1340 -0.9979
    7MOL     C911995   5.116   0.287   6.654  0.0835 -0.0316  0.2410
    7MOL    C1011996   5.087   0.228   6.773 -0.8232 -0.0402  0.1795
    7MOL    C1111997   4.961   0.278   6.821 -0.2698 -0.4843 -0.3402
    7MOL     O111998   4.911   0.265   6.932  0.3295 -0.2834 -0.1133
    7MOL    C1211999   5.236   0.263   6.586  0.9889  0.2078 -0.1688
    7MOL    C1312000   5.337   0.189   6.644  0.2197  0.6326  0.3700
    7MOL    C1412001   5.308   0.124   6.766  0.3726 -0.4502 -0.4818
    7MOL    C1512002   5.186   0.148   6.832 -0.4010 -0.2966  0.5408
    7MOL    C1612003   5.406   0.111   6.415 -0.2624  0.0662 -0.3569
    7MOL    C1712004   5.471   0.152   6.296 -0.1184  0.7427  0.2557
    7MOL    C1812005   5.433   0.092   6.181 -0.2326 -0.3862 -0.0337
    7MOL    C1912006   5.305   0.015   6.415 -0.4989  0.4518  0.0065
    7MOL    C2012007   5.339  -0.005   6.176  0.8192 -0.4080  1.1476
    7MOL    C2112008   5.265  -0.044   6.290  0.2158  0.0449 -0.0638
    7MOL    C2212009   5.460   0.164   6.552  0.2310  0.6884 -0.0988
    7MOL    C2312010   5.548   0.297   6.544  0.1680  0.7544  0.2453
    7MOL     F112011   5.575   0.344   6.668  0.0541 -0.2478  0.3014
    7MOL     F212012   5.484   0.394   6.483  0.1722 -0.4210  0.2238
    7MOL     F312013   5.662   0.294   6.478 -0.1268 -0.2408 -0.1728
    7MOL    C2412014   5.553   0.053   6.611 -0.4626  0.5377  0.2226
    7MOL     F412015   5.653   0.020   6.520 -0.4810 -0.1826 -0.2790
    7MOL     F512016   5.482  -0.060   6.630  0.1089  0.2794 -0.2643
    7MOL     F612017   5.616   0.087   6.728 -0.3508 -0.0759 -0.1455
    7MOL     O212018   4.997   0.450   6.518  0.0500  0.3494 -0.5514
    7MOL    C2512019   5.490   0.107   6.040 -0.0411  0.0159  0.1861
    7MOL     N412020   5.425   0.009   5.962 -0.2082  0.2824 -0.4117
    7MOL    C2612021   5.327  -0.051   6.035  0.3556 -0.0284 -0.6182
    7MOL     O312022   5.233  -0.115   5.993  0.3368 -0.2665 -0.4072
    7MOL    C2712023   4.635   0.849   6.984 -0.2026  0.0041 -0.1488
    7MOL    C2812024   4.774   0.871   6.974  0.8921 -0.0098  0.2435
    7MOL    C2912025   4.584   0.779   7.097  0.0432  0.3818 -0.4094
    7MOL    C3012026   4.863   0.813   7.061  0.4484 -0.2449  0.0293
    7MOL    C3112027   4.676   0.726   7.191 -0.6255  0.0499 -0.4265
    7MOL    C3212028   4.815   0.742   7.167  0.2135  0.5350 -1.0632
    7MOL    C3312029   4.902   0.662   7.248  0.1483 -0.6376 -0.1830
    7MOL     N512030   5.020   0.706   7.318 -0.3522 -0.2633 -0.0528
    7MOL     N612031   4.883   0.519   7.272 -0.2726  0.1320 -0.6200
    7MOL    C3412032   5.077   0.585   7.361 -0.7239  0.2759  0.0517
    7MOL    C3512033   5.005   0.481   7.330  0.6926 -0.0005  0.1681
    7MOL    C3612034   4.791   0.432   7.186  0.1188  0.3002  0.0286
    7MOL     H112035   4.859   0.378   7.115 -0.9970  1.1405 -0.4677
    7MOL     H212036   4.719   0.488   7.128  0.2113  1.5230 -1.0801
    7MOL     H312037   4.738   0.354   7.246  0.5204 -0.3812  0.2387
    7MOL    C3712038   5.101   0.821   7.310  0.2053  0.7883 -0.3682
    7MOL    C3812039   5.123   0.899   7.427 -0.1424 -0.5029  0.0959
    7MOL    C3912040   5.232   0.987   7.441 -0.3020 -0.4011  0.1548
    7MOL    C4012041   5.304   1.014   7.321  0.0846 -0.5539  0.2687
    7MOL    C4112042   5.285   0.934   7.208  0.4186 -0.6569 -0.1201
    7MOL    C4212043   5.182   0.837   7.197  0.0611  0.2856 -0.0747
    7MOL    C4312044   5.024   0.340   7.372 -0.2268 -0.4109 -0.7054
    7MOL     F712045   5.013   0.260   7.269 -0.3628  0.2531  0.0550
    7MOL     F812046   4.943   0.299   7.470  0.1625  0.8538 -0.4956
    7MOL     F912047   5.153   0.328   7.412  0.5550 -0.0949 -0.1728
    7MOL    C4412048   4.380   0.784   6.746 -0.0246 -0.3054 -0.3166
    7MOL    C4512049   4.322   0.889   6.807  0.0183  0.2390 -0.6025
    7MOL    C4612050   4.191   0.956   6.775 -0.1892 -0.0854  0.1832
    7MOL    F1012051   4.134   1.024   6.873 -0.3389 -0.0900 -0.1681
    7MOL    F1112052   4.218   1.038   6.662 -0.0835 -0.1897 -0.4090
    7MOL     H412053   4.341   0.729   6.659  0.4065 -2.0843 -3.1902
    7MOL     H512054   4.763   0.789   6.741  0.7997  0.9093  0.8618
    7MOL     H612055   4.934   0.625   6.707 -0.8565 -0.7158 -0.6043
    7MOL     H712056   4.461   0.511   6.752 -0.3848 -0.5827  0.1858
    7MOL     H812057   4.632   0.325   6.732  2.4669  0.5271  1.1273
    7MOL     H912058   5.247   0.310   6.489  0.9856  1.4602 -4.1456
    7MOL    H1012059   5.384   0.065   6.810  0.5733  3.3555 -1.9214
    7MOL    H1112060   5.169   0.094   6.929  2.3173  1.8374 -0.2048
    7MOL    H1212061   5.251  -0.008   6.509  0.0772  0.7679 -0.7491
    7MOL    H1312062   5.557   0.219   6.301  1.2748  0.5348  1.2424
    7MOL    H1412063   5.189  -0.116   6.276  1.0021 -0.2214 -1.7968
    7MOL     O412064   5.580   0.181   6.001 -0.4282 -0.5880 -0.5346
    7MOL    H1512065   4.801   0.917   6.878 -0.1344 -0.6835  0.3747
    7MOL    H1612066   4.969   0.808   7.041 -0.5166 -0.1202  0.3469
    7MOL    H1712067   4.479   0.751   7.112  2.0169  0.8381  0.4647
    7MOL    H1812068   5.252   1.028   7.542 -1.1716  0.0583 -0.2619
    7MOL    H1912069   5.060   0.877   7.512  0.5923 -0.5938  0.4810
    7MOL    H2012070   5.343   0.950   7.115 -0.2855 -0.5001 -2.2622
    7MOL    H2112071   5.182   0.774   7.102 -1.9277  0.1991 -1.9494
    7MOL    H2212072   5.179   0.590   7.401  0.3117 -0.0613  0.2397
    7MOL    H2312073   4.642   0.662   7.271 -0.7851 -0.8996 -0.9918
    7MOL    F1212074   4.101   0.864   6.728  0.2820 -0.5704 -0.1385
    7MOL    C4712075   4.403   1.077   6.951  0.0938  0.0352  0.6896
    7MOL    H2412076   4.332   1.137   6.891  0.3060 -0.8474 -0.3599
    7MOL    H2512077   4.498   1.140   6.955 -1.2398  1.8315  0.1756
    7MOL    H2612078   4.367   1.066   7.047 -1.2611 -0.1591  0.1556
    7MOL     N112079   6.315   0.082   5.603 -0.2724 -0.4071 -0.5943
    7MOL     N212080   6.373  -0.094   5.461  0.3651 -0.0411 -0.5914
    7MOL     C112081   6.259  -0.024   5.523 -0.3522 -0.7239 -0.2074
    7MOL     C212082   6.354  -0.203   5.377  0.1234  0.0213  0.5690
    7MOL     C312083   6.237  -0.223   5.302 -0.1136  0.4894 -0.7094
    7MOL     C412084   6.221  -0.331   5.210 -0.0955 -0.5697 -1.4855
    7MOL     C512085   6.315  -0.430   5.204  0.1562 -0.0558  0.0022
    7MOL     C612086   6.433  -0.421   5.283  0.1224  0.9104  0.1512
    7MOL     C712087   6.450  -0.308   5.361 -0.3648  0.1270  0.1124
    7MOL     N312088   6.285  -0.544   5.126 -0.1973  0.3491 -0.1853
    7MOL     C812089   6.318  -0.549   4.993 -0.6265 -0.0615  0.8373
    7MOL     C912090   6.233  -0.653   4.936  0.0916  0.6268  0.0016
    7MOL    C1012091   6.163  -0.714   5.039  0.7207  1.1477  0.4340
    7MOL    C1112092   6.184  -0.636   5.160  0.5945 -0.1019 -0.8422
    7MOL     O112093   6.124  -0.646   5.265 -0.2976 -0.2494 -0.4526
    7MOL    C1212094   6.203  -0.675   4.802 -0.5969 -0.0201 -0.0857
    7MOL    C1312095   6.089  -0.751   4.767  0.5656  0.3835 -0.2123
    7MOL    C1412096   6.032  -0.833   4.869  1.0513  0.1579 -0.5492
    7MOL    C1512097   6.065  -0.814   5.003 -0.2624  0.3345  0.1782
    7MOL    C1612098   6.006  -0.562   4.639  0.3371  0.1368  0.5597
    7MOL    C1712099   6.035  -0.483   4.522 -0.1484 -0.5019  0.3551
    7MOL    C1812100   6.013  -0.349   4.531 -0.0954 -0.7848  0.0946
    7MOL    C1912101   5.964  -0.498   4.756 -0.1087  0.3319 -0.4216
    7MOL    C2012102   5.973  -0.289   4.649  0.8271 -0.2639  0.5784
    7MOL    C2112103   5.947  -0.361   4.769 -0.2714 -0.4611 -0.0644
    7MOL    C2212104   6.023  -0.721   4.634 -0.1263  0.0114 -0.2671
    7MOL    C2312105   6.119  -0.771   4.523 -0.6407 -0.0176  0.1321
    7MOL     F112106   6.147  -0.902   4.551 -0.6892 -0.2644  0.3487
    7MOL     F212107   6.232  -0.699   4.503 -0.2016 -0.4414 -0.0616
    7MOL     F312108   6.055  -0.767   4.401 -0.8757  0.0374  0.2156
    7MOL    C2412109   5.879  -0.778   4.617  0.1086 -0.0538 -0.2854
    7MOL     F412110   5.828  -0.729   4.502 -0.2324 -0.1307 -0.0104
    7MOL     F512111   5.790  -0.734   4.718  0.4315 -0.1212 -0.2549
    7MOL     F612112   5.866  -0.917   4.607 -0.3918 -0.2852  0.2506
    7MOL     O212113   6.376  -0.462   4.929  0.4305 -0.2819  0.3493
    7MOL    C2512114   6.039  -0.243   4.434  0.6708 -0.4722 -0.0499
    7MOL     N412115   6.018  -0.125   4.503  0.4370  0.1844 -0.0144
    7MOL    C2612116   5.969  -0.142   4.630  0.0923  0.5060 -0.5809
    7MOL     O312117   5.936  -0.057   4.709  0.1293 -0.6624 -0.0919
    7MOL    C2712118   6.122  -0.045   5.506  0.6787 -1.0516 -0.4139
    7MOL    C2812119   6.061  -0.166   5.547 -0.6035  0.3159 -0.1741
    7MOL    C2912120   6.056   0.047   5.427  0.0474 -0.6722  0.1200
    7MOL    C3012121   5.925  -0.182   5.513  0.5678  0.4162 -0.4571
    7MOL    C3112122   5.917   0.021   5.392 -0.7534  0.5111 -0.1071
    7MOL    C3212123   5.853  -0.101   5.432  0.4741 -0.1140 -0.7328
    7MOL    C3312124   5.724  -0.144   5.389  0.2314  0.0210 -0.3784
    7MOL     N512125   5.626  -0.196   5.478  0.4064 -0.5545 -0.2291
    7MOL     N612126   5.686  -0.185   5.259  0.4998 -0.0008 -0.5642
    7MOL    C3412127   5.545  -0.284   5.397 -0.6074 -0.1447  0.4641
    7MOL    C3512128   5.571  -0.266   5.270 -0.1838 -0.1374 -0.5696
    7MOL    C3612129   5.765  -0.160   5.131  0.1592 -0.1802 -0.7687
    7MOL     H112130   5.761  -0.251   5.073 -0.2664  0.8101 -0.3287
    7MOL     H212131   5.865  -0.135   5.156 -0.5331  0.9321 -2.4335
    7MOL     H312132   5.716  -0.081   5.070 -0.6156 -1.5941  1.7200
    7MOL    C3712133   5.582  -0.137   5.597 -0.1338 -0.7005  0.0991
    7MOL    C3812134   5.668  -0.115   5.704  0.0097  0.3625  0.1949
    7MOL    C3912135   5.615  -0.063   5.826  0.0450 -0.0927  1.0014
    7MOL    C4012136   5.477  -0.033   5.835  0.9844 -0.0398 -0.3153
    7MOL    C4112137   5.392  -0.052   5.723 -0.8359 -0.5496 -0.4556
    7MOL    C4212138   5.445  -0.102   5.602  0.1862 -0.0706  0.1160
    7MOL    C4312139   5.493  -0.307   5.153  0.1698 -0.8051  0.2133
    7MOL     F712140   5.570  -0.371   5.061  0.3986 -0.0157  0.2522
    7MOL     F812141   5.440  -0.193   5.095 -0.2534  0.8134  0.0307
    7MOL     F912142   5.388  -0.390   5.172 -0.0651 -0.1820  0.3055
    7MOL    C4412143   6.480  -0.057   5.542 -0.1062  0.0628 -0.4894
    7MOL    C4512144   6.451   0.044   5.625 -0.5133  0.6870  0.3524
    7MOL    C4612145   6.542   0.099   5.731  0.4793  0.1781  0.4953
    7MOL    F1012146   6.537   0.027   5.847  0.4228 -0.2363  0.1154
    7MOL    F1112147   6.670   0.089   5.686 -0.1547 -0.1424 -0.5381
    7MOL     H412148   6.572  -0.104   5.525  0.8941 -0.3566  0.3689
    7MOL     H512149   6.158  -0.146   5.302 -0.8850 -3.1859 -2.7636
    7MOL     H612150   6.127  -0.339   5.155 -3.6325 -0.7500 -1.2280
    7MOL     H712151   6.551  -0.288   5.400  1.9262 -0.7190 -0.9603
    7MOL     H812152   6.520  -0.486   5.264  1.0679  0.5202 -0.1483
    7MOL     H912153   6.245  -0.600   4.730  0.6206 -0.2007 -1.3865
    7MOL    H1012154   5.947  -0.898   4.852 -0.5818 -0.7929  0.9593
    7MOL    H1112155   6.007  -0.860   5.074  1.7327 -1.6113  0.7712
    7MOL    H1212156   5.955  -0.554   4.849  0.6763  1.0980  0.4237
    7MOL    H1312157   6.070  -0.533   4.433  0.3278 -0.7817  0.7031
    7MOL    H1412158   5.929  -0.304   4.864 -1.1569  0.3934  0.0343
    7MOL     O412159   6.084  -0.252   4.320 -0.3029 -0.1176 -0.4234
    7MOL    H1512160   6.116  -0.240   5.600  1.7581 -0.0797  2.0435
    7MOL    H1612161   5.879  -0.279   5.535 -0.7417  1.1902  1.1763
    7MOL    H1712162   6.119   0.131   5.391  1.1628 -0.0170 -1.1388
    7MOL    H1812163   5.683  -0.047   5.912  1.6041  0.0052  1.4579
    7MOL    H1912164   5.779  -0.141   5.702  1.0052 -0.1534 -0.5087
    7MOL    H2012165   5.291  -0.023   5.724 -0.4673  0.4887 -2.2122
    7MOL    H2112166   5.382  -0.115   5.513 -0.0461 -0.8184 -0.6950
    7MOL    H2212167   5.467  -0.348   5.447 -2.3819  0.6882 -0.0959
    7MOL    H2312168   5.870   0.090   5.329  1.3570 -2.6542  1.6294
    7MOL    F1212169   6.512   0.228   5.766 -0.6097  0.0318 -0.7433
    7MOL    C4712170   6.237   0.120   5.720 -0.3687  0.1663 -0.2382
    7MOL    H2412171   6.281   0.214   5.758 -1.0073 -3.9439 -1.6516
    7MOL    H2512172   6.241   0.042   5.797  0.3212  2.3345 -1.7309
    7MOL    H2612173   6.130   0.142   5.696 -2.7489  0.5488  1.1389
    7MOL     N112174   6.668   0.151   4.646  0.2844  0.2779 -0.2320
    7MOL     N212175   6.814   0.304   4.560  0.2399  0.1741  0.4652
    7MOL     C112176   6.685   0.246   4.542  0.2780  0.2962  0.2825
    7MOL     C212177   6.861   0.418   4.502 -0.4104  0.3757 -0.0042
    7MOL     C312178   6.840   0.436   4.362 -0.9382 -0.5095 -0.5982
    7MOL     C412179   6.899   0.543   4.296 -0.3091  0.2020 -0.1896
    7MOL     C512180   6.961   0.646   4.367 -0.2914 -0.0277  0.0588
    7MOL     C612181   6.983   0.631   4.509  0.5664  0.1631  0.1282
    7MOL     C712182   6.932   0.520   4.574 -0.1908  0.7174  0.0405
    7MOL     N312183   7.021   0.757   4.302 -0.1180 -0.3381 -0.1364
    7MOL     C812184   7.149   0.803   4.324  0.3981 -0.2220 -0.0087
    7MOL     C912185   7.171   0.913   4.231 -0.0151 -0.6292 -0.0674
    7MOL    C1012186   7.056   0.939   4.161  0.2102  0.5754 -0.3352
    7MOL    C1112187   6.955   0.831   4.204 -0.2810 -0.3065 -0.4158
    7MOL     O112188   6.839   0.815   4.165  0.4258  0.0754 -0.3056
    7MOL    C1212189   7.276   1.010   4.224 -0.1546  0.8431  0.5572
    7MOL    C1312190   7.257   1.130   4.150 -0.6479 -0.2782 -0.1736
    7MOL    C1412191   7.155   1.131   4.054 -0.2620  0.0613 -0.3006
    7MOL    C1512192   7.043   1.043   4.074  0.2371  0.4304 -0.9310
    7MOL    C1612193   7.361   1.257   4.343  1.0600  0.3092  0.0373
    7MOL    C1712194   7.478   1.294   4.413  0.2097 -0.3243 -0.2689
    7MOL    C1812195   7.472   1.306   4.553  0.3280  0.0970  0.1837
    7MOL    C1912196   7.244   1.229   4.418 -0.2247 -0.4118 -0.5982
    7MOL    C2012197   7.360   1.262   4.626 -0.2940  0.1525 -0.4603
    7MOL    C2112198   7.239   1.225   4.560 -0.1563 -0.2892  0.3702
    7MOL    C2212199   7.355   1.249   4.185 -0.0145  0.1856 -0.1254
    7MOL    C2312200   7.490   1.205   4.118  0.1833 -0.1470 -0.0056
    7MOL     F112201   7.560   1.107   4.181  0.1362  0.5672 -0.0710
    7MOL     F212202   7.572   1.317   4.118  0.5050  0.0898 -0.0354
    7MOL     F312203   7.467   1.165   3.990 -0.4900 -0.1497  0.5350
    7MOL    C2412204   7.310   1.387   4.134  0.2812 -1.1900 -0.4778
    7MOL     F412205   7.345   1.400   3.997  0.4079 -0.4452  0.1152
    7MOL     F512206   7.375   1.493   4.193  0.6355 -0.6676 -0.4014
    7MOL     F612207   7.185   1.427   4.163 -0.6357  0.2559  0.1239
    7MOL     O212208   7.234   0.759   4.402  0.0651 -0.7441 -0.4201
    7MOL    C2512209   7.573   1.350   4.649 -0.0076  0.4819 -0.6648
    7MOL     N412210   7.530   1.305   4.773 -0.3759  0.3936  0.3605
    7MOL    C2612211   7.399   1.251   4.765  0.1179  0.4597 -0.0826
    7MOL     O312212   7.353   1.180   4.854  0.0885 -0.1682  0.3432
    7MOL    C2712213   6.580   0.323   4.493 -0.5129 -0.4188 -0.0076
    7MOL    C2812214   6.548   0.318   4.361 -0.1344 -0.4096 -0.3808
    7MOL    C2912215   6.502   0.397   4.582 -0.2010  0.3040  0.2730
    7MOL    C3012216   6.436   0.377   4.310 -0.4772  0.6144 -0.6488
    7MOL    C3112217   6.390   0.463   4.529 -0.0192 -0.0066 -0.4851
    7MOL    C3212218   6.356   0.454   4.392  0.2310 -0.1216  0.3334
    7MOL    C3312219   6.227   0.495   4.357  0.6566 -0.1541 -0.1351
    7MOL     N512220   6.106   0.418   4.373 -0.1281 -0.1096 -0.1257
    7MOL     N612221   6.183   0.618   4.301  0.2091  0.3711 -1.2727
    7MOL    C3412222   6.003   0.499   4.321  0.2092  0.0036 -0.2673
    7MOL    C3512223   6.044   0.619   4.282 -0.3571 -0.4514  0.3156
    7MOL    C3612224   6.272   0.726   4.274  0.4663  0.3201 -0.1699
    7MOL     H112225   6.217   0.814   4.255  1.5702  0.4203  0.5752
    7MOL     H212226   6.345   0.695   4.195  2.4377  0.6934  1.2879
    7MOL     H312227   6.329   0.746   4.367 -2.0250  1.2331  0.8511
    7MOL    C3712228   6.101   0.276   4.397 -0.3709  0.6478 -0.2586
    7MOL    C3812229   6.185   0.207   4.485  0.8340  0.1077  0.3606
    7MOL    C3912230   6.150   0.075   4.517  0.1725  0.2855  0.2838
    7MOL    C4012231   6.048   0.000   4.455 -0.4950 -0.6444  0.2341
    7MOL    C4112232   5.964   0.067   4.361  0.1812  0.8392  0.3673
    7MOL    C4212233   5.993   0.203   4.335 -0.7935 -0.2005 -0.7766
    7MOL    C4312234   5.950   0.732   4.243 -0.2550 -0.0909 -0.1401
    7MOL     F712235   6.018   0.837   4.194  0.0216 -0.5765  0.3429
    7MOL     F812236   5.883   0.782   4.346  0.1879  0.7116 -0.4465
    7MOL     F912237   5.852   0.684   4.159  0.0100  0.4638 -0.4278
    7MOL    C4412238   6.867   0.243   4.671 -0.7061  0.3030  0.6936
    7MOL    C4512239   6.780   0.158   4.731 -0.5313  0.2900 -0.0737
    7MOL    C4612240   6.810   0.066   4.850  0.8740 -0.0640 -0.1664
    7MOL    F1012241   6.774  -0.066   4.832  0.0311  0.3872 -0.3760
    7MOL    F1112242   6.942   0.072   4.886  0.6001 -0.0407 -0.1478
    7MOL     H412243   6.967   0.268   4.702 -1.1384  2.1520  4.2040
    7MOL     H512244   6.792   0.356   4.307  1.8118  1.4458 -0.3064
    7MOL     H612245   6.895   0.549   4.190  0.3627 -0.7763 -1.5111
    7MOL     H712246   6.948   0.495   4.682 -0.5927 -4.3318  1.4794
    7MOL     H812247   7.044   0.709   4.565  1.4381  1.6699  0.3122
    7MOL     H912248   7.339   0.998   4.310  0.0316 -1.2277 -1.0513
    7MOL    H1012249   7.154   1.213   3.985 -1.4714  1.2700 -0.2668
    7MOL    H1112250   6.950   1.050   4.017 -0.0644 -0.5516 -1.4041
    7MOL    H1212251   7.151   1.219   4.366 -0.4164 -2.4880  2.0261
    7MOL    H1312252   7.571   1.324   4.363  3.4941  0.1658  1.7969
    7MOL    H1412253   7.153   1.195   4.616  0.0921 -0.3143  3.3147
    7MOL     O412254   7.672   1.414   4.624 -0.0514  0.2143  0.2699
    7MOL    H1512255   6.606   0.255   4.293 -1.7205 -0.2460  0.2504
    7MOL    H1612256   6.417   0.345   4.208  0.6882  1.1250 -1.1606
    7MOL    H1712257   6.513   0.391   4.691 -0.6245  0.1107 -3.9502
    7MOL    H1812258   6.215   0.034   4.588 -1.6355  1.6974 -0.9311
    7MOL    H1912259   6.270   0.245   4.543 -1.4595  1.2477 -0.7998
    7MOL    H2012260   5.883   0.022   4.309  0.8423  0.5943  0.3003
    7MOL    H2112261   5.910   0.244   4.275 -1.0633 -1.3564 -0.0051
    7MOL    H2212262   5.902   0.469   4.327  1.9346  0.6656 -0.6489
    7MOL    H2312263   6.319   0.508   4.599  0.5552  3.7340 -0.7160
    7MOL    F1212264   6.732   0.102   4.953  0.4131 -0.0229 -0.1041
    7MOL    C4712265   6.579   0.035   4.637 -0.0305  0.4236 -0.3639
    7MOL    H2412266   6.490   0.057   4.693  0.8978 -0.9854  0.1193
    7MOL    H2512267   6.608  -0.064   4.694 -1.8465 -1.5157  3.3582
    7MOL    H2612268   6.560   0.012   4.531  2.2380 -2.6036  2.2012
    7MOL     N112269   7.094   1.168   5.085 -0.0832 -0.1389 -0.0783
    7MOL     N212270   7.127   0.954   5.008 -0.1821 -0.0192 -0.6300
    7MOL     C112271   7.183   1.058   5.088 -0.1235  0.6433  0.6827
    7MOL     C212272   7.128   0.819   5.043 -0.2514  0.9605 -0.5620
    7MOL     C312273   7.234   0.758   5.112  0.3161  0.1472 -0.0183
    7MOL     C412274   7.224   0.628   5.166  0.4887 -0.0273 -0.3609
    7MOL     C512275   7.097   0.556   5.159  0.3623 -0.3302 -0.3680
    7MOL     C612276   6.990   0.612   5.086  0.2768 -0.0591 -0.4364
    7MOL     C712277   7.009   0.740   5.025  0.3277  0.4480  0.1906
    7MOL     N312278   7.092   0.423   5.214 -0.2388 -0.3249 -0.1475
    7MOL     C812279   7.001   0.329   5.164  0.2322 -0.2054  0.4294
    7MOL     C912280   6.993   0.217   5.259 -0.9075  0.1239  0.3279
    7MOL    C1012281   7.083   0.238   5.363  0.7818 -0.7094  0.0628
    7MOL    C1112282   7.144   0.375   5.342  0.5907  0.2605 -0.8587
    7MOL     O112283   7.222   0.434   5.414  0.4690  0.2304  0.1316
    7MOL    C1212284   6.969   0.080   5.223 -0.0782 -0.5759  0.3166
    7MOL    C1312285   6.996  -0.030   5.307  0.3120  0.1322  0.5861
    7MOL    C1412286   7.076   0.001   5.423  0.2566 -0.2236  0.0706
    7MOL    C1512287   7.124   0.139   5.447  0.1871 -0.4185  0.6970
    7MOL    C1612288   6.937  -0.257   5.383 -0.0248  0.1462  0.0082
    7MOL    C1712289   6.986  -0.379   5.422 -0.0188 -0.0369 -0.2746
    7MOL    C1812290   6.923  -0.454   5.525 -0.3902  1.2822 -0.4978
    7MOL    C1912291   6.832  -0.211   5.467  0.0635 -0.4375  0.6362
    7MOL    C2012292   6.825  -0.403   5.608 -0.0120  0.0217 -0.4143
    7MOL    C2112293   6.780  -0.273   5.584 -0.3054  0.3175 -0.0790
    7MOL    C2212294   6.982  -0.176   5.263  0.6309 -0.2410  0.2706
    7MOL    C2312295   6.859  -0.195   5.165 -0.5497  0.1865  0.1676
    7MOL     F112296   6.827  -0.321   5.150 -0.2622  0.5908  0.0293
    7MOL     F212297   6.883  -0.150   5.043 -0.3989 -0.2582  0.1207
    7MOL     F312298   6.743  -0.136   5.202 -0.1128 -0.2666  0.3848
    7MOL    C2412299   7.115  -0.227   5.207  1.2378 -0.3738 -0.3060
    7MOL     F412300   7.146  -0.134   5.106 -0.2744  0.2072  0.1035
    7MOL     F512301   7.112  -0.362   5.157 -0.1944  0.4585  0.1588
    7MOL     F612302   7.212  -0.222   5.303  0.1262  0.2423 -0.1528
    7MOL     O212303   6.946   0.332   5.052  0.6748  0.2036  0.2016
    7MOL    C2512304   6.953  -0.591   5.571  0.0773 -0.0617 -0.8260
    7MOL     N412305   6.861  -0.615   5.673 -0.6442  0.1647 -0.1783
    7MOL    C2612306   6.786  -0.504   5.707  0.1398  0.5128 -0.2737
    7MOL     O312307   6.713  -0.502   5.807  0.0788  0.0451  0.6033
    7MOL    C2712308   7.306   1.056   5.154 -0.8087  0.2402  0.1988
    7MOL    C2812309   7.421   1.025   5.079 -0.1518 -0.4930  0.4935
    7MOL    C2912310   7.315   1.077   5.293  0.1724  0.0051  0.5180
    7MOL    C3012311   7.544   1.017   5.138 -0.2340  0.6229 -0.9455
    7MOL    C3112312   7.445   1.080   5.355 -0.5824 -0.2063  0.1322
    7MOL    C3212313   7.556   1.054   5.272 -0.1980 -0.2547  0.1218
    7MOL    C3312314   7.682   1.079   5.320 -0.3890 -0.3806  0.1449
    7MOL     N512315   7.763   1.185   5.268  0.2942  0.5861 -0.3914
    7MOL     N612316   7.748   1.023   5.433  0.0928  0.6125  0.1550
    7MOL    C3412317   7.877   1.177   5.347 -0.4514 -0.4697  0.0696
    7MOL    C3512318   7.878   1.082   5.443  0.7673 -0.1181 -0.4035
    7MOL    C3612319   7.690   0.913   5.513 -0.2606  0.5098 -0.2519
    7MOL     H112320   7.772   0.836   5.530  4.1547  0.0274 -0.5303
    7MOL     H212321   7.593   0.885   5.462 -1.0715  1.2268 -2.1806
    7MOL     H312322   7.663   0.963   5.609  2.0265 -0.8623  2.5565
    7MOL    C3712323   7.730   1.253   5.154 -0.0508 -0.3174 -0.0627
    7MOL    C3812324   7.606   1.320   5.142  0.1128 -0.4430 -0.3776
    7MOL    C3912325   7.546   1.343   5.017 -0.3663 -0.4630 -0.0206
    7MOL    C4012326   7.606   1.302   4.897  0.0989  0.0482  0.3135
    7MOL    C4112327   7.739   1.253   4.906  0.2278 -0.1405  0.4106
    7MOL    C4212328   7.795   1.218   5.030 -0.0970 -0.5058 -0.1130
    7MOL    C4312329   7.980   1.050   5.550  0.7542  0.1292  0.3413
    7MOL     F712330   7.966   0.920   5.597 -0.3853  0.1581  0.5555
    7MOL     F812331   7.970   1.136   5.660  0.2603  0.6693  0.1788
    7MOL     F912332   8.094   1.071   5.480 -0.0127 -0.5543  0.2662
    7MOL    C4412333   7.016   1.015   4.948 -0.0152  0.4975 -0.0209
    7MOL    C4512334   6.994   1.135   4.991  0.6275 -0.1138  0.2138
    7MOL    C4612335   6.900   1.231   4.932  0.6699  0.8811  0.0471
    7MOL    F1012336   6.821   1.287   5.029 -0.2543 -0.5515  0.8072
    7MOL    F1112337   6.980   1.324   4.868  0.0478 -0.2160  0.3569
    7MOL     H412338   6.957   0.959   4.875  1.6802  2.2767  1.4464
    7MOL     H512339   7.318   0.819   5.106  0.6247  1.3258 -2.8523
    7MOL     H612340   7.309   0.575   5.200  0.4601  0.0996  0.4390
    7MOL     H712341   6.924   0.773   4.966 -2.5541 -0.6174 -2.5768
    7MOL     H812342   6.900   0.559   5.066  1.4424  2.2403 -1.0623
    7MOL     H912343   6.936   0.068   5.122 -2.0124  0.6704 -2.3715
    7MOL    H1012344   7.106  -0.086   5.488  0.3998  0.2004 -0.4671
    7MOL    H1112345   7.196   0.157   5.522 -1.3769  1.7734  2.3174
    7MOL    H1212346   6.789  -0.110   5.442 -2.9392 -2.4593  0.6115
    7MOL    H1312347   7.062  -0.428   5.369  2.7900  1.2360  3.0490
    7MOL    H1412348   6.710  -0.226   5.644 -0.7302 -0.9226  0.4771
    7MOL     O412349   7.039  -0.662   5.523 -0.9796 -0.5653 -0.0078
    7MOL    H1512350   7.396   1.006   4.975  0.1461  0.0589  0.5503
    7MOL    H1612351   7.624   1.010   5.065 -1.1492  1.6683 -0.2606
    7MOL    H1712352   7.227   1.092   5.356  0.2000 -0.4076  0.1245
    7MOL    H1812353   7.439   1.372   5.019  1.3123  0.5381 -0.0189
    7MOL    H1912354   7.545   1.324   5.231  0.5817  1.1827 -0.0587
    7MOL    H2012355   7.793   1.224   4.818  1.5975  1.7300  2.0559
    7MOL    H2112356   7.885   1.163   5.031 -0.6974 -1.6151  1.7737
    7MOL    H2212357   7.959   1.255   5.325 -1.5471 -0.8874 -1.9268
    7MOL    H2312358   7.452   1.094   5.464  2.2109 -0.6079  3.2415
    7MOL    F1212359   6.814   1.170   4.839 -0.1719  0.0126 -0.5291
    7MOL    C4712360   7.074   1.273   5.192 -0.0904  0.4833 -0.0869
    7MOL    H2412361   7.031   1.217   5.277 -1.2801  0.5485  1.1597
    7MOL    H2512362   7.002   1.359   5.164 -1.3334 -0.0830 -2.1792
    7MOL    H2612363   7.170   1.309   5.212  0.1297 -1.8898 -0.3559
    7MOL     N112364   6.400  -0.481   5.936 -0.4983 -0.4638 -0.3231
    7MOL     N212365   6.309  -0.449   6.145 -0.1297  0.3476 -0.0630
    7MOL     C112366   6.403  -0.524   6.075  0.0211 -0.1470  0.2351
    7MOL     C212367   6.227  -0.475   6.258 -0.1666 -0.1361 -0.5730
    7MOL     C312368   6.107  -0.401   6.283  0.2651 -0.4500  0.6301
    7MOL     C412369   6.021  -0.444   6.385 -0.2033  0.3816 -0.7090
    7MOL     C512370   6.049  -0.562   6.457 -0.8510 -0.0813 -0.0668
    7MOL     C612371   6.169  -0.634   6.440 -0.5874 -0.7563  0.2884
    7MOL     C712372   6.256  -0.587   6.340 -0.2295 -0.2897  0.2865
    7MOL     N312373   5.955  -0.598   6.559  0.3460 -1.0423 -0.7653
    7MOL     C812374   5.983  -0.576   6.691  0.8047 -0.1089  0.1844
    7MOL     C912375   5.858  -0.616   6.761 -0.4532 -0.1735 -0.3414
    7MOL    C1012376   5.767  -0.656   6.667  0.8797  0.5646  0.2567
    7MOL    C1112377   5.831  -0.654   6.535  0.4411  0.2535  0.7042
    7MOL     O112378   5.789  -0.687   6.426 -0.3788  0.2018 -0.1570
    7MOL    C1212379   5.816  -0.593   6.892  0.0273 -0.1616  0.3257
    7MOL    C1312380   5.676  -0.620   6.931 -0.4969  0.0891  0.1256
    7MOL    C1412381   5.588  -0.676   6.834 -0.8653  0.0755  0.3362
    7MOL    C1512382   5.630  -0.690   6.702 -0.3014 -0.4148  0.1328
    7MOL    C1612383   5.662  -0.407   7.056 -0.1092  0.1099 -0.1534
    7MOL    C1712384   5.723  -0.339   7.166  0.0253 -0.2891 -0.1325
    7MOL    C1812385   5.739  -0.202   7.157 -0.7245  0.3593  0.4108
    7MOL    C1912386   5.630  -0.336   6.937 -0.1983  0.2427 -0.7135
    7MOL    C2012387   5.697  -0.128   7.041  0.1204  1.0156 -0.2758
    7MOL    C2112388   5.641  -0.190   6.931 -0.3279  0.7413  0.2018
    7MOL    C2212389   5.628  -0.554   7.066 -0.3662 -0.2641  0.1669
    7MOL    C2312390   5.471  -0.547   7.080 -0.2473  0.6329 -0.1095
    7MOL     F112391   5.445  -0.464   7.185  0.3023 -0.2339 -0.3865
    7MOL     F212392   5.418  -0.667   7.112 -0.3144 -0.0414 -0.1408
    7MOL     F312393   5.401  -0.494   6.976  0.8192  0.1406  0.0565
    7MOL    C2412394   5.691  -0.641   7.180 -0.1927  0.3576 -0.1442
    7MOL     F412395   5.673  -0.777   7.159 -0.4072  0.3792 -0.5552
    7MOL     F512396   5.642  -0.607   7.303  0.3328 -0.3735  0.2584
    7MOL     F612397   5.824  -0.617   7.201  0.2724  0.1999  0.1100
    7MOL     O212398   6.085  -0.531   6.740 -0.0718 -0.2592  0.4126
    7MOL    C2512399   5.816  -0.110   7.241  0.1663 -0.2653  0.0982
    7MOL     N412400   5.808   0.007   7.177  0.0636  0.5410  0.6050
    7MOL    C2612401   5.737   0.011   7.064 -0.2075 -0.5841  0.4445
    7MOL     O312402   5.730   0.110   6.990  0.5045 -0.0154 -0.6676
    7MOL    C2712403   6.469  -0.638   6.114  0.3379  0.3853 -0.3892
    7MOL    C2812404   6.410  -0.768   6.134  0.1322  0.9071 -0.0762
    7MOL    C2912405   6.602  -0.621   6.131  0.6992 -1.0084 -0.2523
    7MOL    C3012406   6.499  -0.871   6.163  0.1558 -0.1096  0.5125
    7MOL    C3112407   6.686  -0.722   6.179  0.6967 -0.1050  0.1655
    7MOL    C3212408   6.640  -0.855   6.180  0.1258  0.6130 -0.2096
    7MOL    C3312409   6.733  -0.955   6.195 -0.7420 -0.0221  0.6872
    7MOL     N512410   6.825  -0.989   6.092 -0.1715 -0.3448 -0.0988
    7MOL     N612411   6.720  -1.069   6.281 -0.6260  0.0739  0.2519
    7MOL    C3412412   6.856  -1.120   6.108  0.2748 -0.8698 -0.2781
    7MOL    C3512413   6.797  -1.163   6.220  0.1574  0.7842  0.5629
    7MOL    C3612414   6.635  -1.073   6.405  0.5826 -0.1117  0.1001
    7MOL     H112415   6.675  -1.006   6.485 -1.1793 -0.0498 -0.1515
    7MOL     H212416   6.628  -1.183   6.442 -0.4591 -0.6616 -2.1429
    7MOL     H312417   6.529  -1.044   6.372  0.2724  2.0643  0.8912
    7MOL    C3712418   6.837  -0.922   5.973  0.2690  0.6189 -0.2974
    7MOL    C3812419   6.961  -0.884   5.922 -0.3916 -0.6503 -0.0033
    7MOL    C3912420   6.968  -0.782   5.823 -0.9703 -0.3823 -0.2742
    7MOL    C4012421   6.853  -0.735   5.755  0.0091 -0.0366 -0.4172
    7MOL    C4112422   6.728  -0.793   5.790 -0.6350  0.7580 -0.2583
    7MOL    C4212423   6.719  -0.883   5.903  0.1336  0.3520 -0.3263
    7MOL    C4312424   6.812  -1.306   6.277  0.1075 -0.3627  0.0561
    7MOL     F712425   6.704  -1.385   6.237  0.0516  0.2289 -0.0659
    7MOL     F812426   6.827  -1.326   6.411  0.2259 -0.1805  0.2280
    7MOL     F912427   6.921  -1.369   6.224  0.0034 -0.3327 -0.1595
    7MOL    C4412428   6.263  -0.359   6.047 -0.0119 -0.2545 -0.8702
    7MOL    C4512429   6.317  -0.374   5.926 -0.4687 -0.2717  0.3576
    7MOL    C4612430   6.317  -0.293   5.797 -0.5520  0.0731 -0.5971
    7MOL    F1012431   6.216  -0.203   5.790  0.6491 -0.1458 -0.3855
    7MOL    F1112432   6.426  -0.223   5.790  0.2185 -0.5289 -0.5173
    7MOL     H412433   6.206  -0.272   6.075  2.0242 -2.1798  0.7786
    7MOL     H512434   6.084  -0.318   6.215  1.4609 -0.5290  0.4903
    7MOL     H612435   5.930  -0.396   6.398  2.8523  0.7711 -0.2131
    7MOL     H712436   6.344  -0.644   6.328 -0.1771 -2.1460  2.4144
    7MOL     H812437   6.194  -0.711   6.511 -1.6867  1.5044 -4.0120
    7MOL     H912438   5.885  -0.540   6.964  0.4542  2.6928 -0.2015
    7MOL    H1012439   5.486  -0.708   6.862 -1.5773  0.9043 -0.4823
    7MOL    H1112440   5.567  -0.747   6.630 -1.1125 -2.5294 -1.7427
    7MOL    H1212441   5.599  -0.393   6.849 -1.5129  3.3941 -1.7383
    7MOL    H1312442   5.756  -0.395   7.251 -3.1201 -0.8006  0.4628
    7MOL    H1412443   5.624  -0.139   6.838 -0.3150 -2.2269 -2.4883
    7MOL     O412444   5.868  -0.128   7.354 -0.0182 -0.2439  0.0712
    7MOL    H1512445   6.298  -0.788   6.119 -0.3094  1.6995  0.0046
    7MOL    H1612446   6.463  -0.970   6.161  1.7242  0.6746 -0.6914
    7MOL    H1712447   6.648  -0.520   6.128 -0.2215  1.2072 -1.2547
    7MOL    H1812448   7.067  -0.742   5.804  0.7509  0.0423 -2.4486
    7MOL    H1912449   7.054  -0.921   5.963  0.3432 -0.6797  3.1178
    7MOL    H2012450   6.629  -0.777   5.745 -3.1917 -0.4654  2.8650
    7MOL    H2112451   6.620  -0.926   5.929  0.0596  1.3222 -1.8808
    7MOL    H2212452   6.938  -1.162   6.056  0.0985 -2.1011  0.5976
    7MOL    H2312453   6.791  -0.709   6.201 -0.0147  1.4270  1.2714
    7MOL    F1212454   6.297  -0.357   5.677 -0.7793  0.0443 -0.6831
    7MOL    C4712455   6.400  -0.587   5.836  0.7818  0.0336 -0.4928
    7MOL    H2412456   6.498  -0.587   5.789  0.5206  2.1199 -1.9073
    7MOL    H2512457   6.328  -0.569   5.747 -1.3459 -1.0544 -1.2392
    7MOL    H2612458   6.366  -0.682   5.885  0.9618 -0.9061  0.0372
    7MOL     N112459   5.998   0.017   6.817 -1.4642  0.9103 -0.0731
    7MOL     N212460   6.002   0.133   6.622  0.3217  0.3007 -0.0011
    7MOL     C112461   6.012   0.146   6.765  0.1388  0.0975 -0.4433
    7MOL     C212462   5.982   0.237   6.527 -0.8481  0.1286 -0.1923
    7MOL     C312463   5.925   0.357   6.564  0.3874 -0.4524 -0.5171
    7MOL     C412464   5.887   0.457   6.469 -0.5852  0.4512 -0.1880
    7MOL     C512465   5.900   0.415   6.334  0.2207 -0.8166  0.4630
    7MOL     C612466   5.953   0.291   6.294  0.0434  0.5776  0.2836
    7MOL     C712467   5.996   0.203   6.394 -0.0034 -0.0825  0.1212
    7MOL     N312468   5.871   0.508   6.227 -0.5612 -0.2323 -0.3262
    7MOL     C812469   5.969   0.572   6.158  0.2143  0.1915 -0.0197
    7MOL     C912470   5.904   0.684   6.092 -0.7307 -0.1210  0.1301
    7MOL    C1012471   5.768   0.667   6.106  0.2369 -0.4566 -0.1541
    7MOL    C1112472   5.743   0.555   6.199 -0.4308 -0.3750 -0.1585
    7MOL     O112473   5.632   0.514   6.236  0.4319 -0.1930 -0.6920
    7MOL    C1212474   5.950   0.792   6.013 -0.3472  0.6459 -0.1063
    7MOL    C1312475   5.869   0.881   5.939 -0.3675 -0.1307 -0.6227
    7MOL    C1412476   5.731   0.849   5.956  0.3851 -0.5496 -0.7008
    7MOL    C1512477   5.676   0.754   6.044 -0.6474 -0.3760 -0.1965
    7MOL    C1612478   6.015   1.085   5.984 -0.2583 -0.5423  0.5585
    7MOL    C1712479   5.967   1.081   6.119 -0.1204 -0.1529 -0.6866
    7MOL    C1812480   6.046   1.125   6.224  0.4318  0.1203  0.1562
    7MOL    C1912481   6.144   1.139   5.963  0.3084 -0.3475 -0.2770
    7MOL    C2012482   6.176   1.168   6.201 -0.2170 -0.3159  0.0857
    7MOL    C2112483   6.226   1.177   6.072 -0.2503  0.6872 -0.3151
    7MOL    C2212484   5.931   1.012   5.875 -0.5221 -0.1147 -0.1922
    7MOL    C2312485   6.014   0.964   5.754  0.2024 -0.2562  0.8599
    7MOL     F112486   6.119   0.877   5.777 -0.6309 -0.4454 -0.2105
    7MOL     F212487   6.070   1.058   5.677 -0.0576  0.3291  0.2051
    7MOL     F312488   5.920   0.893   5.682 -0.1315  1.2330 -0.1921
    7MOL    C2412489   5.819   1.116   5.824  0.0099 -0.0742  0.1462
    7MOL     F412490   5.862   1.215   5.734 -0.0137 -0.6021  0.4825
    7MOL     F512491   5.779   1.185   5.932  0.0475 -0.0381  0.6542
    7MOL     F612492   5.709   1.056   5.767 -0.3794 -0.6094 -0.7140
    7MOL     O212493   6.089   0.550   6.168 -0.2369 -0.3899 -0.6889
    7MOL    C2512494   6.030   1.098   6.365 -0.4685  0.0483  1.0178
    7MOL     N412495   6.158   1.110   6.421  0.1481 -0.1077 -0.6019
    7MOL    C2612496   6.242   1.161   6.332 -0.2282  0.0603  0.0126
    7MOL     O312497   6.355   1.191   6.370  0.2528  0.5114 -0.2105
    7MOL    C2712498   6.012   0.265   6.845  0.6300  0.0938 -0.2886
    7MOL    C2812499   5.887   0.316   6.884 -0.0389  0.1970  0.2121
    7MOL    C2912500   6.129   0.341   6.876  0.6993  0.3081 -0.2394
    7MOL    C3012501   5.879   0.425   6.974 -0.4291  0.2526 -0.6729
    7MOL    C3112502   6.114   0.459   6.958 -0.6135  0.5330 -0.3446
    7MOL    C3212503   5.991   0.500   7.009  0.3838 -0.3236 -0.1582
    7MOL    C3312504   5.973   0.583   7.118  0.4360  0.0532 -0.0632
    7MOL     N512505   5.933   0.540   7.247 -0.1129 -0.3000 -0.0165
    7MOL     N612506   6.013   0.722   7.136  0.1315  0.4930  0.0954
    7MOL    C3412507   5.959   0.646   7.337 -0.0971  0.9842  0.5914
    7MOL    C3512508   6.007   0.749   7.274 -0.4403  0.2845  0.7905
    7MOL    C3612509   6.100   0.790   7.037  0.2006 -0.6778 -0.2622
    7MOL     H112510   6.073   0.893   7.021  2.3700 -2.8070 -1.1555
    7MOL     H212511   6.074   0.739   6.946  1.4154 -0.9772  0.6041
    7MOL     H312512   6.209   0.774   7.058  2.1389 -1.7540 -0.3547
    7MOL    C3712513   5.908   0.406   7.273  0.4181 -0.3641 -0.0066
    7MOL    C3812514   6.011   0.315   7.246  0.6425 -0.5338  0.2454
    7MOL    C3912515   5.982   0.179   7.232  0.0195 -0.0187  0.0286
    7MOL    C4012516   5.846   0.131   7.241 -1.2910  0.0519  0.2718
    7MOL    C4112517   5.745   0.225   7.283  0.0328  0.2187 -0.2816
    7MOL    C4212518   5.774   0.363   7.298 -0.1656 -0.3759  0.1912
    7MOL    C4312519   6.038   0.882   7.334 -0.2061  0.0149 -0.0002
    7MOL     F712520   6.177   0.901   7.344 -0.2323 -0.8293 -0.0263
    7MOL     F812521   5.973   0.893   7.454 -0.2393 -0.2693 -0.4086
    7MOL     F912522   5.981   0.980   7.265  0.1016 -0.2788 -0.1757
    7MOL    C4412523   5.962   0.001   6.597 -0.4326  0.2033 -0.0963
    7MOL    C4512524   5.970  -0.074   6.708 -0.3134 -0.7999  0.0524
    7MOL    C4612525   5.949  -0.224   6.732  0.4807 -0.4585  0.1215
    7MOL    F1012526   5.921  -0.256   6.856 -0.1690 -0.4923 -0.0402
    7MOL    F1112527   5.841  -0.268   6.650  0.0183  0.1959 -0.6263
    7MOL     H412528   5.928  -0.034   6.499  1.1426 -1.2213  0.2085
    7MOL     H512529   5.929   0.388   6.671 -0.7304 -1.4802  1.6898
    7MOL     H612530   5.864   0.562   6.494 -3.6529  2.3656  0.4226
    7MOL     H712531   6.040   0.105   6.370  2.1770  1.5094  0.5298
    7MOL     H812532   5.958   0.269   6.185 -0.4208  2.2193  1.0256
    7MOL     H912533   6.057   0.803   6.013  1.4127  1.0433  0.4794
    7MOL    H1012534   5.660   0.909   5.918  1.6073 -2.2242  0.4384
    7MOL    H1112535   5.567   0.729   6.045  0.4331 -0.6327  1.0092
    7MOL    H1212536   6.188   1.139   5.860  1.1330 -0.9002  1.4396
    7MOL    H1312537   5.864   1.050   6.133 -1.6163 -0.3879 -1.2065
    7MOL    H1412538   6.331   1.205   6.062  1.2387  0.5991 -0.7786
    7MOL     O412539   5.928   1.065   6.416 -0.2014  0.4552 -0.0168
    7MOL    H1512540   5.785   0.272   6.857 -0.8250  0.6429 -1.9844
    7MOL    H1612541   5.781   0.448   7.009  2.4609 -2.6137  3.7069
    7MOL    H1712542   6.229   0.312   6.834  0.3583 -3.2112  0.8936
    7MOL    H1812543   6.073   0.126   7.201  3.4090 -0.8552 -0.3157
    7MOL    H1912544   6.111   0.362   7.232  1.6486  0.1543  2.0596
    7MOL    H2012545   5.640   0.198   7.295  1.3410  0.6388 -0.3271
    7MOL    H2112546   5.704   0.435   7.329  2.5637  1.1762 -1.5772
    7MOL    H2212547   5.948   0.631   7.439 -0.6032 -0.6793  0.2371
    7MOL    H2312548   6.206   0.509   6.998  1.7308  0.3842  0.5600
    7MOL    F1212549   6.065  -0.278   6.700  0.6943 -0.7655 -0.6313
    7MOL    C4712550   6.070  -0.031   6.935  0.3007  0.0428 -0.2954
    7MOL    H2412551   6.137  -0.118   6.910 -0.2023 -0.4709  1.3482
    7MOL    H2512552   6.004  -0.051   7.019 -1.2927 -0.2597  2.7412
    7MOL    H2612553   6.134   0.054   6.958  3.1346 -0.6147  0.3436
    7MOL     N112554   6.828   1.157   6.494 -0.1103 -0.0435 -0.7366
    7MOL     N212555   6.719   1.328   6.385 -0.4840  0.1435 -0.5488
    7MOL     C112556   6.729   1.262   6.512 -0.0840 -0.0336  0.0983
    7MOL     C212557   6.621   1.396   6.320  0.9737  0.4581  0.2840
    7MOL     C312558   6.535   1.477   6.393 -0.2167 -0.6753  0.4205
    7MOL     C412559   6.433   1.541   6.325  0.0908 -0.1651  0.9722
    7MOL     C512560   6.403   1.505   6.189 -0.7567 -0.3524 -0.1816
    7MOL     C612561   6.488   1.420   6.121  0.8689  0.1174 -0.0705
    7MOL     C712562   6.591   1.365   6.188  0.0154 -0.5180 -0.4954
    7MOL     N312563   6.298   1.563   6.114  0.5362  0.2955 -0.1558
    7MOL     C812564   6.333   1.629   5.998  0.0948 -0.3833  0.3505
    7MOL     C912565   6.217   1.626   5.917 -0.5111  0.7309 -0.5618
    7MOL    C1012566   6.117   1.564   5.987  0.7199  0.3776 -0.0682
    7MOL    C1112567   6.170   1.522   6.120 -0.3854  0.5709  0.1460
    7MOL     O112568   6.118   1.456   6.208  0.8348  0.4616 -0.3521
    7MOL    C1212569   6.216   1.647   5.778  0.3310 -0.3503  0.1402
    7MOL    C1312570   6.085   1.623   5.711 -1.4739  0.3404 -0.8554
    7MOL    C1412571   5.972   1.590   5.793  0.5757  0.3802  0.7277
    7MOL    C1512572   5.981   1.552   5.932  0.1724 -0.3192  0.4437
    7MOL    C1612573   6.202   1.567   5.497  0.6497  0.1793 -0.2936
    7MOL    C1712574   6.226   1.435   5.541  0.0585  0.0267 -0.1982
    7MOL    C1812575   6.328   1.359   5.487 -0.1805  0.4570 -1.0221
    7MOL    C1912576   6.289   1.620   5.401  0.4402  0.0053  0.6925
    7MOL    C2012577   6.410   1.404   5.388  0.1598  0.2196 -0.5161
    7MOL    C2112578   6.395   1.537   5.344 -0.2639 -0.1750  0.4378
    7MOL    C2212579   6.078   1.632   5.559  0.8419 -0.1399 -0.2704
    7MOL    C2312580   5.958   1.561   5.499  0.0561  0.2535  0.2866
    7MOL     F112581   5.838   1.630   5.510 -0.1345  0.5621  0.2946
    7MOL     F212582   5.942   1.439   5.555 -1.0047  0.1535  0.4348
    7MOL     F312583   5.976   1.545   5.367 -0.1470  0.2069  0.2019
    7MOL    C2412584   6.069   1.788   5.534  0.8867 -0.3213 -0.7206
    7MOL     F412585   6.177   1.851   5.582 -0.2892 -0.1617  0.6421
    7MOL     F512586   5.964   1.847   5.587 -0.3373 -0.2384  0.0019
    7MOL     F612587   6.055   1.811   5.400 -0.1083  0.5358  0.0256
    7MOL     O212588   6.446   1.665   5.970  0.2776 -0.2717 -0.0464
    7MOL    C2512589   6.370   1.221   5.523 -0.5647 -0.5173 -0.4121
    7MOL     N412590   6.469   1.188   5.428  0.1891 -0.1544 -0.3513
    7MOL    C2612591   6.507   1.296   5.350  0.3008 -0.2721  0.1269
    7MOL     O312592   6.583   1.281   5.258  0.1796  0.2247 -0.0303
    7MOL    C2712593   6.651   1.277   6.631  0.6166  0.0683 -0.5539
    7MOL    C2812594   6.515   1.281   6.616  0.0338 -0.2630 -0.6666
    7MOL    C2912595   6.702   1.252   6.760 -0.4893 -0.5295  0.0154
    7MOL    C3012596   6.430   1.288   6.728  0.4844 -0.2921 -0.2274
    7MOL    C3112597   6.618   1.247   6.871  0.2380  0.3745 -0.0376
    7MOL    C3212598   6.477   1.256   6.852  0.0600  0.0030 -1.0249
    7MOL    C3312599   6.392   1.223   6.957  0.2906  0.4423 -0.1876
    7MOL     N512600   6.288   1.121   6.958 -0.3897  0.0817 -0.2590
    7MOL     N612601   6.391   1.274   7.089 -0.4476  0.0619 -0.0507
    7MOL    C3412602   6.242   1.110   7.089  0.8628 -0.4120 -0.0986
    7MOL    C3512603   6.302   1.195   7.169 -0.1698  0.5641 -0.2179
    7MOL    C3612604   6.435   1.415   7.113 -0.3752  0.4847  0.0913
    7MOL     H112605   6.344   1.465   7.163 -1.4455 -2.8697 -0.7266
    7MOL     H212606   6.462   1.467   7.017 -0.6806 -0.2551  0.7390
    7MOL     H312607   6.516   1.411   7.186 -4.2206  1.0324  3.1991
    7MOL    C3712608   6.235   1.067   6.838 -0.1632 -0.4425 -0.4863
    7MOL    C3812609   6.319   0.999   6.749  0.8884  0.2643  0.2030
    7MOL    C3912610   6.293   1.009   6.612 -0.0058 -0.6755  0.5524
    7MOL    C4012611   6.184   1.078   6.563 -0.2334 -0.2462 -0.6293
    7MOL    C4112612   6.094   1.140   6.658 -0.1786 -0.4740 -0.3548
    7MOL    C4212613   6.124   1.140   6.792 -0.3275  0.8456  0.6623
    7MOL    C4312614   6.279   1.234   7.317  0.2250  0.2626  0.1677
    7MOL     F712615   6.254   1.372   7.330  0.5485  0.6286  0.1031
    7MOL     F812616   6.388   1.202   7.391  0.0254  0.0575  0.0187
    7MOL     F912617   6.170   1.170   7.367 -0.0409 -0.3586  0.0389
    7MOL    C4412618   6.838   1.289   6.325 -0.3544 -0.1269 -0.0295
    7MOL    C4512619   6.897   1.187   6.375 -0.5616  0.4698 -0.4200
    7MOL    C4612620   7.008   1.104   6.318  0.5232 -0.4502  0.1947
    7MOL    F1012621   7.095   1.170   6.247  0.6410 -0.2155  0.0327
    7MOL    F1112622   7.081   1.044   6.411 -0.1988 -0.8093 -0.4293
    7MOL     H412623   6.860   1.330   6.230 -0.2482  0.0432 -0.8746
    7MOL     H512624   6.555   1.514   6.488 -1.5986 -1.8698 -0.6204
    7MOL     H612625   6.370   1.619   6.374  0.5052  0.9062  0.5936
    7MOL     H712626   6.654   1.291   6.135  2.9679 -1.7443 -0.5319
    7MOL     H812627   6.484   1.402   6.013 -0.2300 -0.2661 -0.2027
    7MOL     H912628   6.300   1.691   5.724 -0.3106 -1.2799  0.1350
    7MOL    H1012629   5.873   1.592   5.751  2.1559 -1.4157  2.1182
    7MOL    H1112630   5.897   1.524   5.988  1.2698  0.0798 -0.8195
    7MOL    H1212631   6.270   1.711   5.344 -1.2450 -1.1976  1.7627
    7MOL    H1312632   6.158   1.385   5.617 -1.6825 -1.9312  0.8470
    7MOL    H1412633   6.449   1.575   5.265  3.3045 -2.9892  0.8670
    7MOL     O412634   6.327   1.150   5.616  0.7333 -0.0430  0.6829
    7MOL    H1512635   6.475   1.279   6.512  0.5607  0.5489 -2.9918
    7MOL    H1612636   6.328   1.292   6.708  0.5872  1.5069  2.7789
    7MOL    H1712637   6.805   1.231   6.768  0.0202 -0.7438  1.4520
    7MOL    H1812638   6.363   0.962   6.542 -0.9850  0.5138 -1.6709
    7MOL    H1912639   6.417   0.962   6.790  4.2881 -0.2526  0.5695
    7MOL    H2012640   6.010   1.193   6.628  1.8276  2.3591  0.5216
    7MOL    H2112641   6.056   1.196   6.856 -0.5365 -1.5370  0.1726
    7MOL    H2212642   6.162   1.040   7.094  0.4866 -0.1962 -0.3325
    7MOL    H2312643   6.664   1.222   6.966  0.2586 -1.4352  0.0301
    7MOL    F1212644   6.968   1.012   6.232 -0.0595 -0.1966  0.3222
    7MOL    C4712645   6.769   1.016   6.498  0.4644  0.7849  0.1622
    7MOL    H2412646   6.794   0.978   6.594 -0.4135  0.5469 -1.3581
    7MOL    H2512647   6.815   0.951   6.424 -2.3297 -1.4042  1.5087
    7MOL    H2612648   6.658   1.012   6.499 -2.5334  2.1998  0.2352
    7MOL     N112649   6.524   1.311   4.856  0.3843 -0.5114 -0.6226
    7MOL     N212650   6.369   1.296   5.021  0.2967 -0.3767 -0.2421
    7MOL     C112651   6.449   1.220   4.927  0.4205  0.0569  0.1050
    7MOL     C212652   6.249   1.248   5.077 -0.3917 -0.4768 -0.3177
    7MOL     C312653   6.206   1.114   5.061  0.1458  0.1729 -0.0802
    7MOL     C412654   6.106   1.064   5.141  0.2427 -0.4300  0.2742
    7MOL     C512655   6.046   1.148   5.237  0.6362 -0.2408  0.1576
    7MOL     C612656   6.086   1.276   5.255 -0.4957 -0.1200  0.2433
    7MOL     C712657   6.189   1.328   5.174  0.5061 -0.4641 -0.1512
    7MOL     N312658   5.929   1.104   5.301 -0.2493  0.5560  0.1932
    7MOL     C812659   5.804   1.152   5.256 -0.7978 -1.2140  0.1421
    7MOL     C912660   5.702   1.058   5.317 -1.1875 -0.8404 -0.1283
    7MOL    C1012661   5.770   0.971   5.398 -0.3164 -0.8147 -0.6013
    7MOL    C1112662   5.917   1.000   5.388  0.1422  0.1767  0.0434
    7MOL     O112663   6.011   0.940   5.445 -0.6595 -0.4611  0.3104
    7MOL    C1212664   5.563   1.052   5.287  0.1199  0.3989 -0.4740
    7MOL    C1312665   5.481   0.953   5.346 -0.3700 -1.1495  0.4204
    7MOL    C1412666   5.549   0.865   5.437 -0.8134  0.0865 -0.8869
    7MOL    C1512667   5.693   0.870   5.454 -0.0599  0.7924  0.2918
    7MOL    C1612668   5.282   1.109   5.325  0.5296 -0.3169  0.1560
    7MOL    C1712669   5.335   1.197   5.422 -0.3653 -0.0147  0.7331
    7MOL    C1812670   5.299   1.338   5.417  1.3416 -0.2875  0.0681
    7MOL    C1912671   5.186   1.161   5.236 -0.0637  0.0485  0.3184
    7MOL    C2012672   5.201   1.382   5.332 -0.2900 -0.1510  0.4493
    7MOL    C2112673   5.141   1.294   5.248  1.1234 -0.3832 -0.6680
    7MOL    C2212674   5.327   0.958   5.321 -0.7050 -0.4022 -0.5599
    7MOL    C2312675   5.307   0.899   5.177 -0.5189 -0.1711  0.3982
    7MOL     F112676   5.375   0.786   5.154 -0.2743  0.1901 -0.2869
    7MOL     F212677   5.358   0.984   5.080 -0.0126  0.0816 -0.3743
    7MOL     F312678   5.181   0.876   5.150 -0.2342  0.5453 -0.3769
    7MOL    C2412679   5.253   0.871   5.424  0.6141  1.0883  0.0633
    7MOL     F412680   5.119   0.896   5.407  0.2547  0.2184  0.1936
    7MOL     F512681   5.281   0.905   5.550  0.1446  0.4355 -0.3316
    7MOL     F612682   5.273   0.733   5.409 -0.2828 -0.0960 -0.8185
    7MOL     O212683   5.787   1.244   5.178 -0.0654 -0.1147  0.5428
    7MOL    C2512684   5.338   1.450   5.502  0.1860 -0.0570 -0.0304
    7MOL     N412685   5.268   1.555   5.458 -0.2744 -0.4801  0.1868
    7MOL    C2612686   5.186   1.524   5.354  0.6963 -0.2425 -0.0856
    7MOL     O312687   5.109   1.599   5.296  0.1785  0.6525  0.4765
    7MOL    C2712688   6.494   1.087   4.941 -0.5888  0.7221 -0.0975
    7MOL    C2812689   6.601   1.068   5.030 -0.3550  0.0550 -0.6010
    7MOL    C2912690   6.447   0.976   4.866  0.4423 -0.3497 -0.8154
    7MOL    C3012691   6.668   0.948   5.035 -0.3706  0.0947 -0.6834
    7MOL    C3112692   6.502   0.847   4.886  0.7451 -0.1918  0.3304
    7MOL    C3212693   6.602   0.835   4.984 -0.0339  0.0314  0.1629
    7MOL    C3312694   6.617   0.716   5.051 -0.8115 -0.2130 -0.0043
    7MOL     N512695   6.594   0.701   5.193  0.4515 -0.8349 -0.0380
    7MOL     N612696   6.600   0.590   4.986  0.2305 -1.0983 -0.8412
    7MOL    C3412697   6.563   0.567   5.214 -0.5174 -0.6091 -0.1085
    7MOL    C3512698   6.567   0.503   5.098  0.2093  0.1572  0.0281
    7MOL    C3612699   6.700   0.556   4.894  0.4252 -0.2756 -0.4460
    7MOL     H112700   6.792   0.614   4.913  1.4456  0.6147 -0.2243
    7MOL     H212701   6.653   0.600   4.798  0.6242  1.0417  1.3340
    7MOL     H312702   6.716   0.447   4.895  1.3367 -0.0442 -2.9444
    7MOL    C3712703   6.567   0.802   5.275 -0.5067 -0.4047  0.2807
    7MOL    C3812704   6.443   0.858   5.263  0.6195 -0.1844  0.5638
    7MOL    C3912705   6.414   0.981   5.320  0.5344  0.4257 -0.1073
    7MOL    C4012706   6.508   1.052   5.395  0.2976  0.6708 -0.2583
    7MOL    C4112707   6.638   0.997   5.405 -0.1316  0.2728  0.5502
    7MOL    C4212708   6.662   0.869   5.347  0.0968 -0.2312 -0.3243
    7MOL    C4312709   6.530   0.363   5.078 -0.3000  0.0708  0.2552
    7MOL     F712710   6.426   0.320   5.160 -0.2747 -0.4296  0.0445
    7MOL     F812711   6.639   0.289   5.105 -0.5463  0.2564 -0.4376
    7MOL     F912712   6.500   0.329   4.952  0.2445 -0.6242 -0.2961
    7MOL    C4412713   6.410   1.432   5.004  0.4095  0.2235 -0.2484
    7MOL    C4512714   6.513   1.438   4.916  0.2856  0.1076  0.3612
    7MOL    C4612715   6.606   1.560   4.892  0.0474 -0.4576  0.4598
    7MOL    F1012716   6.542   1.683   4.905  0.1555  0.8959 -0.4927
    7MOL    F1112717   6.699   1.564   4.984  0.5428  0.2753 -0.1530
    7MOL     H412718   6.364   1.516   5.061  0.8261  1.5973 -3.1017
    7MOL     H512719   6.253   1.053   4.988 -0.6525 -0.0991  0.7488
    7MOL     H612720   6.070   0.959   5.126  1.7490 -0.8151  0.2578
    7MOL     H712721   6.226   1.428   5.180  0.3263  0.7946  1.5704
    7MOL     H812722   6.038   1.338   5.327  2.4223 -1.5489  4.8276
    7MOL     H912723   5.516   1.122   5.217 -0.9787 -1.5808 -2.6378
    7MOL    H1012724   5.488   0.793   5.497 -1.7004 -0.3200  0.0943
    7MOL    H1112725   5.742   0.790   5.514 -0.0053 -0.4162 -0.5123
    7MOL    H1212726   5.128   1.102   5.172  2.6240  0.5641 -0.9188
    7MOL    H1312727   5.402   1.166   5.500 -0.5303  0.9360 -1.8172
    7MOL    H1412728   5.064   1.326   5.176  1.4878  0.6651  2.3422
    7MOL     O412729   5.411   1.437   5.597 -0.4855 -0.1508  0.2720
    7MOL    H1512730   6.632   1.156   5.082 -2.0131  0.8600 -0.9632
    7MOL    H1612731   6.754   0.946   5.099  1.0140  1.2047 -1.8637
    7MOL    H1712732   6.378   0.999   4.780 -0.7878  0.4459 -1.4020
    7MOL    H1812733   6.312   1.027   5.296  1.4174  1.7586 -0.2851
    7MOL    H1912734   6.365   0.805   5.205 -1.4268 -0.8628 -1.5458
    7MOL    H2012735   6.720   1.067   5.445  1.2564  1.7650 -0.8779
    7MOL    H2112736   6.764   0.825   5.347  1.7438  0.6107 -0.2863
    7MOL    H2212737   6.516   0.530   5.306  0.8257  0.6525  0.1777
    7MOL    H2312738   6.443   0.766   4.841 -2.0741 -0.7238 -0.2601
    7MOL    F1212739   6.670   1.559   4.775  0.1701 -0.7872 -0.6015
    7MOL    C4712740   6.553   1.295   4.713 -0.0402  0.2746 -0.2566
    7MOL    H2412741   6.637   1.362   4.693 -2.8039 -0.1331  0.5556
    7MOL    H2512742   6.465   1.319   4.646 -1.6467 -0.5219  1.3633
    7MOL    H2612743   6.590   1.187   4.694  0.3924 -0.7704 -0.1956
    7MOL     N112744   4.874   1.816   6.099 -0.1682  0.3030 -0.1407
    7MOL     N212745   5.012   1.918   6.254 -0.3303 -0.1227  0.1257
    7MOL     C112746   4.965   1.929   6.119  0.5641  0.2213  0.7531
    7MOL     C212747   5.133   1.981   6.301  0.1330  0.2872  0.5829
    7MOL     C312748   5.246   1.907   6.265 -0.0366 -0.0382  1.5251
    7MOL     C412749   5.374   1.965   6.282  0.5656  0.2530 -0.2446
    7MOL     C512750   5.384   2.100   6.316  1.0907 -0.3155  0.0315
    7MOL     C612751   5.268   2.178   6.348 -0.4186 -0.1816  0.3734
    7MOL     C712752   5.146   2.117   6.349 -0.7982  0.2108 -0.0012
    7MOL     N312753   5.503   2.166   6.306  0.2802  0.0435 -0.8527
    7MOL     C812754   5.539   2.259   6.406 -0.3568 -0.2463  0.1311
    7MOL     C912755   5.631   2.351   6.344  0.0752  0.2881 -0.2233
    7MOL    C1012756   5.656   2.308   6.211  0.4137 -0.5093  0.3574
    7MOL    C1112757   5.561   2.197   6.180 -0.0840  0.3910  0.3435
    7MOL     O112758   5.533   2.148   6.068 -0.1930  0.0533  0.1243
    7MOL    C1212759   5.681   2.471   6.396  0.9504 -0.4300  0.8420
    7MOL    C1312760   5.767   2.549   6.316  0.0425 -0.0880  0.3089
    7MOL    C1412761   5.798   2.504   6.182  0.2080 -0.0510 -0.4608
    7MOL    C1512762   5.734   2.391   6.130  0.2096  0.0689  0.1851
    7MOL    C1612763   5.811   2.678   6.523 -0.7779 -0.5930 -0.2179
    7MOL    C1712764   5.891   2.577   6.584 -0.2971  0.0137 -0.1438
    7MOL    C1812765   5.891   2.572   6.727 -0.0736 -0.3499  0.3534
    7MOL    C1912766   5.732   2.761   6.603  0.7644 -0.7393 -0.1068
    7MOL    C2012767   5.797   2.644   6.802  0.6122  0.1877  0.7404
    7MOL    C2112768   5.716   2.742   6.740  0.2455 -0.3358 -0.2656
    7MOL    C2212769   5.804   2.684   6.368 -0.0006  0.3333 -0.0593
    7MOL    C2312770   5.949   2.736   6.319  0.6835 -0.6731 -0.0293
    7MOL     F112771   5.931   2.817   6.205  0.2797 -0.0811 -0.2793
    7MOL     F212772   6.036   2.642   6.270  0.0677  0.0317  0.0820
    7MOL     F312773   6.017   2.807   6.410  0.4573 -0.2610  0.1521
    7MOL    C2412774   5.695   2.776   6.313 -0.7365  0.2848  0.6115
    7MOL     F412775   5.570   2.736   6.351  0.6360 -0.0209 -0.9468
    7MOL     F512776   5.685   2.773   6.179 -0.3031 -0.3992  0.4365
    7MOL     F612777   5.710   2.906   6.341  0.1361  0.3145 -0.1369
    7MOL     O212778   5.493   2.259   6.519  0.1162 -0.0574 -0.0702
    7MOL    C2512779   5.957   2.482   6.821 -0.1199  0.5397 -0.2312
    7MOL     N412780   5.898   2.503   6.944  0.2868 -0.2204 -0.1945
    7MOL    C2612781   5.796   2.594   6.940  0.1420 -0.1532  0.1943
    7MOL     O312782   5.725   2.623   7.031  0.1944 -0.4399 -0.1008
    7MOL    C2712783   5.039   1.997   6.022 -0.7713 -0.1591 -0.6772
    7MOL    C2812784   5.151   1.929   5.988 -0.5127  0.1345 -0.2907
    7MOL    C2912785   5.025   2.135   5.984 -0.0223 -0.1551  0.2787
    7MOL    C3012786   5.242   1.980   5.901 -0.3327  0.3162 -0.1909
    7MOL    C3112787   5.121   2.188   5.901  0.5437  0.0366  0.0536
    7MOL    C3212788   5.235   2.108   5.853  0.2200 -0.5266 -0.2640
    7MOL    C3312789   5.315   2.158   5.748 -0.8014  0.5024 -0.3302
    7MOL     N512790   5.345   2.097   5.623  0.3225 -0.1057 -0.4265
    7MOL     N612791   5.344   2.297   5.737  0.1673 -0.4446 -0.0525
    7MOL    C3412792   5.390   2.200   5.541  0.4576  0.3552 -0.2885
    7MOL    C3512793   5.389   2.313   5.606  1.0547 -0.3055 -0.4477
    7MOL    C3612794   5.424   2.371   5.848  0.7639  0.4553  0.0197
    7MOL     H112795   5.479   2.294   5.902 -0.4421  1.7832  0.0239
    7MOL     H212796   5.358   2.431   5.907  0.3336  3.9599  0.7400
    7MOL     H312797   5.481   2.451   5.802 -2.4190 -2.3429 -1.7740
    7MOL    C3712798   5.319   1.960   5.590 -0.5623 -0.2599  0.7077
    7MOL    C3812799   5.433   1.891   5.550 -0.1469 -0.4353 -0.2937
    7MOL    C3912800   5.420   1.756   5.509  0.4193  0.3525 -0.2695
    7MOL    C4012801   5.289   1.694   5.505 -0.4411 -0.2750 -0.2259
    7MOL    C4112802   5.178   1.769   5.540 -0.1729  0.1456 -0.1679
    7MOL    C4212803   5.195   1.903   5.589  0.3423  0.0770 -0.7398
    7MOL    C4312804   5.424   2.449   5.545  0.4235 -0.0262 -0.7658
    7MOL     F712805   5.552   2.477   5.554 -0.3450 -0.2000 -0.4083
    7MOL     F812806   5.352   2.548   5.601 -0.3169  0.3368  0.0558
    7MOL     F912807   5.383   2.448   5.415 -0.0387  0.0869 -0.3319
    7MOL    C4412808   4.947   1.808   6.307  0.4135  0.0733 -0.1358
    7MOL    C4512809   4.871   1.749   6.220  0.1138 -0.8243  0.3610
    7MOL    C4612810   4.767   1.636   6.245 -0.9596 -0.2771  0.0903
    7MOL    F1012811   4.764   1.610   6.379 -0.3054 -0.5022  0.1537
    7MOL    F1112812   4.645   1.665   6.202 -0.4939 -0.5387  0.3751
    7MOL     H412813   4.966   1.773   6.408  2.3916  1.4343 -0.1669
    7MOL     H512814   5.233   1.803   6.209 -0.3179 -0.2902  0.5523
    7MOL     H612815   5.459   1.905   6.262 -1.2932 -0.6208 -1.6398
    7MOL     H712816   5.058   2.182   6.364 -2.9655  0.5509  0.1309
    7MOL     H812817   5.280   2.285   6.363  1.0776 -0.6724 -0.5728
    7MOL     H912818   5.642   2.504   6.489 -0.3484 -0.9529  1.0119
    7MOL    H1012819   5.874   2.554   6.124  2.9128 -0.2396  0.0041
    7MOL    H1112820   5.766   2.359   6.032  2.2622 -0.7444 -0.6265
    7MOL    H1212821   5.663   2.830   6.562  1.1817 -1.0125 -1.7842
    7MOL    H1312822   5.945   2.501   6.528  1.1055 -1.0190 -0.3089
    7MOL    H1412823   5.646   2.809   6.797 -1.6655  0.6084  3.7677
    7MOL     O412824   6.046   2.406   6.794  0.0951  0.7178  0.7111
    7MOL    H1512825   5.162   1.823   6.013 -0.2948  1.1579  0.7263
    7MOL    H1612826   5.323   1.909   5.867  0.3172  0.1377  3.0612
    7MOL    H1712827   4.938   2.193   6.022  0.1166  1.3645  0.2219
    7MOL    H1812828   5.505   1.703   5.481 -0.7790  1.5155  2.0631
    7MOL    H1912829   5.530   1.940   5.556 -1.9376  1.2038  2.0468
    7MOL    H2012830   5.079   1.723   5.555  0.6366 -2.6750  1.7826
    7MOL    H2112831   5.110   1.957   5.643 -0.7124  3.1802  0.0859
    7MOL    H2212832   5.430   2.184   5.440 -0.4362  1.3106  0.8175
    7MOL    H2312833   5.114   2.288   5.859 -2.6137  0.5881  0.4164
    7MOL    F1212834   4.812   1.524   6.190  0.3031 -0.3780  0.1167
    7MOL    C4712835   4.829   1.763   5.972  0.5425 -0.2102 -0.1503
    7MOL    H2412836   4.714   1.766   5.974  0.0821  1.6206  0.5866
    7MOL    H2512837   4.869   1.664   5.956  1.0045 -1.6068  0.5145
    7MOL    H2612838   4.868   1.829   5.894 -3.9674 -1.3227  2.5857
    7MOL     N112839   5.610   2.911   7.146 -0.4434 -0.2157  0.4050
    7MOL     N212840   5.451   2.746   7.195  0.4959 -0.5775  0.2199
    7MOL     C112841   5.583   2.800   7.233  0.3374  0.1300  0.1095
    7MOL     C212842   5.358   2.671   7.262  0.7896 -0.6103  0.7824
    7MOL     C312843   5.229   2.726   7.264  0.2634 -0.4970  0.4565
    7MOL     C412844   5.121   2.645   7.296  0.4481 -0.4396 -0.0810
    7MOL     C512845   5.149   2.504   7.317  0.3248 -0.7952 -0.0435
    7MOL     C612846   5.279   2.467   7.351  0.7991  0.8457 -0.4378
    7MOL     C712847   5.383   2.544   7.312  0.1899 -0.4057  0.4966
    7MOL     N312848   5.043   2.415   7.341  0.3477 -0.0898 -0.3990
    7MOL     C812849   4.988   2.396   7.462 -0.4907 -0.4309 -0.8782
    7MOL     C912850   4.855   2.330   7.433  0.2967 -0.2389  0.2063
    7MOL    C1012851   4.853   2.296   7.301  0.1319 -0.0088 -0.2770
    7MOL    C1112852   4.982   2.345   7.240 -0.3249  0.0163  0.8092
    7MOL     O112853   5.014   2.332   7.123  0.9054 -0.0689 -0.2220
    7MOL    C1212854   4.743   2.304   7.514 -0.2033 -0.4388  0.7434
    7MOL    C1312855   4.628   2.246   7.461 -0.0380  0.0325  0.1059
    7MOL    C1412856   4.630   2.212   7.324  0.6588  0.7508  0.8686
    7MOL    C1512857   4.744   2.231   7.243  0.0342  0.2398  0.4515
    7MOL    C1612858   4.459   2.075   7.510  0.1741 -0.8335 -0.3656
    7MOL    C1712859   4.545   1.968   7.522  0.3062  0.2065 -0.6994
    7MOL    C1812860   4.493   1.839   7.518 -0.0816 -0.1599 -0.0984
    7MOL    C1912861   4.325   2.054   7.467  0.5703  0.4687 -0.6277
    7MOL    C2012862   4.358   1.817   7.491 -0.3061 -0.6270 -0.5888
    7MOL    C2112863   4.268   1.921   7.455 -0.8267 -0.2973  0.1010
    7MOL    C2212864   4.497   2.223   7.542 -0.6418 -0.6087 -0.5922
    7MOL    C2312865   4.515   2.232   7.696  0.5723  0.8976 -0.1707
    7MOL     F112866   4.401   2.174   7.746 -0.1812 -0.2078 -0.5330
    7MOL     F212867   4.532   2.358   7.744 -0.1491  0.5374 -0.3851
    7MOL     F312868   4.619   2.152   7.730  0.0485  0.0089 -0.3912
    7MOL    C2412869   4.398   2.337   7.502  0.5535  0.4905 -0.6102
    7MOL     F412870   4.451   2.467   7.528 -0.0280 -0.0089  0.1396
    7MOL     F512871   4.275   2.335   7.562 -0.0869  0.1322 -0.4093
    7MOL     F612872   4.367   2.325   7.373 -0.2199  0.4035 -0.0298
    7MOL     O212873   5.041   2.415   7.568  0.0081 -0.3574 -0.5665
    7MOL    C2512874   4.563   1.706   7.512 -0.5643  0.4662  0.2749
    7MOL     N412875   4.467   1.614   7.490 -0.4910 -0.6018  0.0293
    7MOL    C2612876   4.343   1.670   7.479  0.2958 -0.3251  0.2504
    7MOL     O312877   4.243   1.608   7.478 -0.3728 -0.0045  0.0259
    7MOL    C2712878   5.690   2.758   7.311 -0.4483  0.4981  0.3483
    7MOL    C2812879   5.821   2.754   7.261 -0.4059 -0.2613 -0.0705
    7MOL    C2912880   5.675   2.711   7.449 -0.4392  0.1399  0.2307
    7MOL    C3012881   5.923   2.710   7.336  1.0586  0.6921 -0.1245
    7MOL    C3112882   5.781   2.658   7.520  0.9305  0.3145  0.2007
    7MOL    C3212883   5.907   2.655   7.463  0.2152  0.4687 -0.1784
    7MOL    C3312884   6.016   2.589   7.519  0.1604  0.5920  0.0103
    7MOL     N512885   6.072   2.470   7.465  0.0352  0.6777  0.5616
    7MOL     N612886   6.035   2.576   7.658  0.0699  0.3658  0.0652
    7MOL    C3412887   6.128   2.394   7.567  0.2159 -0.1103 -0.5061
    7MOL    C3512888   6.105   2.457   7.681 -0.2550 -0.7395 -0.5153
    7MOL    C3612889   6.046   2.696   7.747  0.3184  0.1654  0.0225
    7MOL     H112890   6.001   2.679   7.849 -0.9907 -1.1445 -1.5879
    7MOL     H212891   5.996   2.789   7.708 -1.1233  2.5719  0.5354
    7MOL     H312892   6.151   2.723   7.744  2.5126  0.1959  1.7078
    7MOL    C3712893   6.043   2.430   7.334  0.3739 -0.1635 -0.2126
    7MOL    C3812894   5.907   2.404   7.308  0.0660  1.0665 -0.2403
    7MOL    C3912895   5.861   2.403   7.171 -0.3970  0.0529  0.3396
    7MOL    C4012896   5.950   2.450   7.070 -0.2121  0.1289  0.0730
    7MOL    C4112897   6.084   2.475   7.101 -0.6524  0.1325  0.9425
    7MOL    C4212898   6.134   2.457   7.232  0.5770  0.3763 -0.1339
    7MOL    C4312899   6.145   2.407   7.815  0.1990 -0.6888  0.0268
    7MOL     F712900   6.043   2.431   7.908  0.0046  0.1115 -0.4459
    7MOL     F812901   6.258   2.466   7.858  0.3420 -0.2525  0.4147
    7MOL     F912902   6.175   2.275   7.804  0.2220  0.4679  0.5566
    7MOL    C4412903   5.422   2.816   7.075 -0.3043  0.2113  0.2615
    7MOL    C4512904   5.512   2.909   7.050 -0.6287  0.7659 -1.1289
    7MOL    C4612905   5.495   3.021   6.948  0.2702 -0.5742  0.1464
    7MOL    F1012906   5.456   3.137   7.007 -0.4689  0.0422  0.0314
    7MOL    F1112907   5.600   3.044   6.872  0.0147  0.6814  0.0687
    7MOL     H412908   5.320   2.808   7.027 -0.2399 -0.5180 -3.9481
    7MOL     H512909   5.217   2.826   7.225  0.7571  0.2925  1.6432
    7MOL     H612910   5.020   2.682   7.294  1.0995  2.2491 -0.0787
    7MOL     H712911   5.478   2.504   7.307 -0.2798  0.8306 -0.2494
    7MOL     H812912   5.294   2.362   7.384 -0.4341 -1.9331  0.2201
    7MOL     H912913   4.761   2.306   7.624  0.8845  1.3515  0.0010
    7MOL    H1012914   4.539   2.167   7.275 -0.5347 -0.5250  0.1659
    7MOL    H1112915   4.737   2.197   7.142  0.2861  0.0066 -0.8562
    7MOL    H1212916   4.267   2.138   7.445  1.0645 -1.0021  0.4537
    7MOL    H1312917   4.655   1.979   7.524  1.6248  2.7852 -0.3168
    7MOL    H1412918   4.165   1.899   7.424  0.0268 -0.4355  3.1779
    7MOL     O412919   4.682   1.681   7.533  0.5437  0.1838  0.2317
    7MOL    H1512920   5.826   2.768   7.157 -3.5903 -2.2822  1.8962
    7MOL    H1612921   6.020   2.709   7.292  0.5920  0.5660  3.6778
    7MOL    H1712922   5.571   2.727   7.499 -1.7122 -1.5501  1.4243
    7MOL    H1812923   5.758   2.390   7.153 -0.4853  1.6935 -0.9582
    7MOL    H1912924   5.831   2.394   7.384 -1.2557  2.2549  1.1989
    7MOL    H2012925   6.160   2.490   7.020 -0.8223  0.0637 -2.0944
    7MOL    H2112926   6.232   2.497   7.244  3.1839 -0.0135 -1.9009
    7MOL    H2212927   6.182   2.299   7.554  0.7772 -1.7131 -1.0013
    7MOL    H2312928   5.752   2.627   7.622 -2.3798  0.0990  1.2216
    7MOL    F1212929   5.398   2.988   6.857  0.3493  0.1949  0.1685
    7MOL    C4712930   5.685   3.030   7.194 -0.0578  0.5053  0.7549
    7MOL    H2412931   5.609   3.088   7.242 -0.4776 -3.2018 -0.2397
    7MOL    H2512932   5.721   3.095   7.106 -1.9938  2.7411 -2.1694
    7MOL    H2612933   5.771   3.000   7.257  0.9930  0.5775 -0.0290
    7MOL     N112934   3.961   1.235   7.072  0.2899 -0.0180  0.3234
    7MOL     N212935   3.876   1.044   7.180 -0.2754 -0.8671 -0.3421
    7MOL     C112936   3.985   1.134   7.172 -0.4538  0.0354  0.0660
    7MOL     C212937   3.864   0.938   7.269 -0.5017  0.0011  0.3403
    7MOL     C312938   3.949   0.826   7.241 -0.2345 -0.3682 -1.3970
    7MOL     C412939   3.937   0.711   7.322  0.0825  0.9198 -0.2963
    7MOL     C512940   3.830   0.707   7.417  0.4378  0.5248  0.3033
    7MOL     C612941   3.740   0.810   7.434  0.2732 -0.6905 -0.8953
    7MOL     C712942   3.763   0.928   7.362  0.1098 -0.4100  0.0761
    7MOL     N312943   3.808   0.582   7.478  0.2276  0.6046 -0.6877
    7MOL     C812944   3.694   0.510   7.439  0.0014  1.2893  0.1399
    7MOL     C912945   3.734   0.368   7.471  0.5168  0.0512 -0.1430
    7MOL    C1012946   3.844   0.363   7.557 -0.1173  0.0734  0.3333
    7MOL    C1112947   3.896   0.505   7.555  0.1950  0.0486  1.7042
    7MOL     O112948   4.000   0.549   7.598  0.1364  0.4735 -0.4815
    7MOL    C1212949   3.661   0.255   7.445  0.2506  0.0322  0.1497
    7MOL    C1312950   3.706   0.130   7.481  0.2307  0.3065  0.4920
    7MOL    C1412951   3.814   0.125   7.578 -0.1311  0.0986 -0.5562
    7MOL    C1512952   3.893   0.241   7.612  0.1317 -0.1582  0.1245
    7MOL    C1612953   3.734  -0.112   7.435 -0.4536 -0.0219  0.8087
    7MOL    C1712954   3.702  -0.239   7.487  0.2099  0.4871 -0.1840
    7MOL    C1812955   3.794  -0.343   7.478 -0.2993 -0.0367 -0.3801
    7MOL    C1912956   3.864  -0.092   7.374  0.0427 -0.0878 -1.0974
    7MOL    C2012957   3.924  -0.319   7.431 -0.1590 -0.0818  0.3552
    7MOL    C2112958   3.963  -0.195   7.376  0.6437  0.0658  0.1367
    7MOL    C2212959   3.637   0.009   7.427 -0.3097  0.0416 -0.1871
    7MOL    C2312960   3.515  -0.008   7.526 -0.7306  0.9174  0.1777
    7MOL     F112961   3.434   0.101   7.523 -0.0620 -0.0252  0.1641
    7MOL     F212962   3.555  -0.042   7.645  0.1079  0.1943 -0.3817
    7MOL     F312963   3.431  -0.105   7.489 -0.6563  0.8359 -0.3731
    7MOL    C2412964   3.588   0.019   7.275 -0.3837  0.0763  1.1496
    7MOL     F412965   3.523  -0.099   7.249  0.0150 -0.8632  0.1749
    7MOL     F512966   3.691   0.018   7.175 -0.3609  0.4295 -0.2026
    7MOL     F612967   3.514   0.125   7.230 -0.0534  0.4194 -0.1143
    7MOL     O212968   3.594   0.545   7.375 -0.1762  0.4217  0.2026
    7MOL    C2512969   3.781  -0.490   7.514 -0.7632 -0.2603  0.0207
    7MOL     N412970   3.902  -0.546   7.487 -0.6731  0.1755  0.1755
    7MOL    C2612971   3.997  -0.449   7.448  0.0241 -0.8003  0.6534
    7MOL     O312972   4.109  -0.490   7.422  0.5085  0.6180  0.4826
    7MOL    C2712973   4.104   1.099   7.230  1.0033 -0.0412 -0.3367
    7MOL    C2812974   4.189   1.003   7.181  0.4213  0.3841 -0.7478
    7MOL    C2912975   4.111   1.137   7.366  0.0481 -0.4634  0.1510
    7MOL    C3012976   4.295   0.948   7.263  0.5746  0.6259 -0.8099
    7MOL    C3112977   4.222   1.084   7.439 -0.4191 -0.5302 -0.3891
    7MOL    C3212978   4.323   1.006   7.387 -0.4437  0.4447  0.5042
    7MOL    C3312979   4.448   0.973   7.444  0.3388 -0.6647 -0.3469
    7MOL     N512980   4.541   1.060   7.497 -0.1988  0.1389  0.2857
    7MOL     N612981   4.489   0.836   7.475 -0.5464 -0.0114 -0.6218
    7MOL    C3412982   4.641   0.982   7.547  0.4028  0.5232 -0.6490
    7MOL    C3512983   4.612   0.851   7.539 -0.4571  0.3445  0.2181
    7MOL    C3612984   4.381   0.747   7.533  0.0402  0.3780 -0.2784
    7MOL     H112985   4.406   0.725   7.642 -1.1424  1.3293 -0.5554
    7MOL     H212986   4.362   0.662   7.481  0.3354  4.8303  1.4352
    7MOL     H312987   4.286   0.799   7.524  1.3086  0.5439  0.5622
    7MOL    C3712988   4.532   1.199   7.496  0.0648  0.1972  0.7758
    7MOL    C3812989   4.506   1.265   7.374 -0.4453  0.2641 -0.3497
    7MOL    C3912990   4.484   1.397   7.370 -0.3883  0.3382  0.1058
    7MOL    C4012991   4.485   1.476   7.491  0.2901 -0.4274 -0.4865
    7MOL    C4112992   4.510   1.412   7.613 -0.0657 -0.1535  0.3303
    7MOL    C4212993   4.541   1.274   7.614  0.2725 -0.6290 -0.3503
    7MOL    C4312994   4.691   0.731   7.593 -0.3224 -0.0524 -0.0541
    7MOL     F712995   4.626   0.660   7.689  0.3455 -0.2622 -0.9527
    7MOL     F812996   4.803   0.781   7.654 -0.3035  0.2169 -0.1476
    7MOL     F912997   4.725   0.641   7.496 -0.3728  0.0156 -0.3591
    7MOL    C4412998   3.778   1.095   7.092 -0.2266  0.1192 -0.1787
    7MOL    C4512999   3.829   1.198   7.026 -0.0906 -0.2268 -0.1185
    7MOL    C4613000   3.761   1.265   6.909 -0.4137 -0.0253  0.2536
    7MOL    F1013001   3.639   1.208   6.888 -0.1295 -0.0781 -0.1871
    7MOL    F1113002   3.741   1.389   6.953  0.3369  0.5445 -0.0558
    7MOL     H413003   3.690   1.043   7.066 -0.6153 -1.3235  0.8212
    7MOL     H513004   4.007   0.832   7.152  0.0988  0.6210 -0.7328
    7MOL     H613005   3.998   0.614   7.307  0.7710  0.9054 -1.5939
    7MOL     H713006   3.688   1.006   7.363  0.1602 -1.9137  0.0939
    7MOL     H813007   3.642   0.785   7.477 -0.0086  1.9313 -0.0812
    7MOL     H913008   3.563   0.267   7.400 -0.3522 -0.6792  0.0116
    7MOL    H1013009   3.845   0.028   7.618 -0.0208  0.9297 -1.2708
    7MOL    H1113010   3.976   0.239   7.682  0.4859  0.4496  3.9434
    7MOL    H1213011   3.884   0.008   7.339  0.5905 -0.6322  2.2583
    7MOL    H1313012   3.609  -0.261   7.540 -0.9268 -0.3974  2.1858
    7MOL    H1413013   4.062  -0.171   7.345 -0.5868 -0.6228  1.8925
    7MOL     O413014   3.684  -0.553   7.551  0.3174 -0.0059  0.2107
    7MOL    H1513015   4.167   0.967   7.087  0.1663  1.4707  1.4179
    7MOL    H1613016   4.355   0.872   7.215  0.5396  0.5359 -0.0231
    7MOL    H1713017   4.045   1.217   7.409 -0.7562 -1.0004 -2.4751
    7MOL    H1813018   4.465   1.444   7.270 -2.2873 -2.9713  0.6838
    7MOL    H1913019   4.519   1.215   7.277  0.2023  2.3141  1.2219
    7MOL    H2013020   4.517   1.465   7.703 -0.5744  0.7873 -1.4512
    7MOL    H2113021   4.563   1.215   7.706 -1.2384 -0.6549 -3.0301
    7MOL    H2213022   4.723   1.038   7.589  1.1333  0.5933  1.9251
    7MOL    H2313023   4.234   1.128   7.539 -0.0895 -1.7403 -0.1167
    7MOL    F1213024   3.829   1.275   6.796 -0.1752  0.0617  0.1947
    7MOL    C4713025   4.067   1.290   6.989 -0.0422 -0.1221  0.7173
    7MOL    H2413026   4.064   1.399   6.999  2.5090  3.8223  1.7621
    7MOL    H2513027   4.055   1.261   6.879  0.1175 -1.2743 -1.9849
    7MOL    H2613028   4.154   1.256   7.038  2.7453  1.5140 -0.3804
    7MOL     N113029   4.279  -0.338   7.175  0.3099 -0.3102 -0.2765
    7MOL     N213030   4.106  -0.327   7.027  0.3301  0.4367  0.4666
    7MOL     C113031   4.196  -0.419   7.089  0.1456  0.5849 -0.2564
    7MOL     C213032   4.032  -0.343   6.912  0.4018 -0.0884 -0.3839
    7MOL     C313033   3.893  -0.341   6.922  1.0647 -0.2085 -0.2786
    7MOL     C413034   3.818  -0.334   6.805  0.3393  0.1273 -0.5850
    7MOL     C513035   3.881  -0.313   6.682  0.1724  0.4634  0.9842
    7MOL     C613036   4.021  -0.309   6.674  0.4782 -0.3121 -0.2746
    7MOL     C713037   4.090  -0.333   6.790 -0.1778  0.4326  0.0979
    7MOL     N313038   3.816  -0.312   6.560 -0.1575 -0.2626  0.0023
    7MOL     C813039   3.860  -0.223   6.462  0.4442  0.1017  0.4043
    7MOL     C913040   3.821  -0.277   6.335  0.5167  0.3255  1.3468
    7MOL    C1013041   3.760  -0.397   6.354  0.4431  0.1822  0.2945
    7MOL    C1113042   3.738  -0.411   6.500  0.0674  0.2816  0.0733
    7MOL     O113043   3.684  -0.506   6.553 -0.3032 -0.3904  0.3848
    7MOL    C1213044   3.857  -0.236   6.203  0.2942 -0.7621  0.3142
    7MOL    C1313045   3.829  -0.320   6.097  0.3895  0.0409  0.4452
    7MOL    C1413046   3.764  -0.444   6.123  0.1407  0.0699  0.6950
    7MOL    C1513047   3.727  -0.482   6.251  0.3435  0.5013  0.5211
    7MOL    C1613048   3.875  -0.123   5.945 -0.5128 -0.2186 -0.0744
    7MOL    C1713049   3.758  -0.059   5.991 -0.4168 -0.0809  0.9459
    7MOL    C1813050   3.749   0.086   5.981  0.0382 -0.1226  0.8399
    7MOL    C1913051   3.984  -0.035   5.905 -0.3979  0.2417 -0.7889
    7MOL    C2013052   3.852   0.167   5.943 -0.6452  0.2127  0.2891
    7MOL    C2113053   3.977   0.106   5.917  0.2729  0.0074 -0.9260
    7MOL    C2213054   3.875  -0.273   5.958  0.0196  0.4965 -0.0174
    7MOL    C2313055   4.020  -0.334   5.946 -0.3282 -0.0689 -0.1439
    7MOL     F113056   4.092  -0.297   6.058  0.3650  0.1971  0.2736
    7MOL     F213057   4.079  -0.291   5.833  0.2386  0.5348  0.0565
    7MOL     F313058   4.023  -0.472   5.945 -0.0319  0.2244 -0.2035
    7MOL    C2413059   3.784  -0.319   5.834 -0.4676  0.2675 -0.1958
    7MOL     F413060   3.841  -0.285   5.718 -0.2124  0.1145  0.5920
    7MOL     F513061   3.654  -0.281   5.840  0.2607 -0.0338  0.1215
    7MOL     F613062   3.782  -0.451   5.819  0.1949 -0.1493  0.1734
    7MOL     O213063   3.912  -0.117   6.487  0.1260  0.1554 -0.4407
    7MOL    C2513064   3.629   0.181   5.971 -0.8844 -0.2402 -0.3029
    7MOL     N413065   3.677   0.308   5.954 -0.2950  0.3308  0.2117
    7MOL    C2613066   3.809   0.309   5.933  0.0364  0.1189 -0.6891
    7MOL     O313067   3.871   0.413   5.916 -0.7057 -0.3300  0.1556
    7MOL    C2713068   4.185  -0.557   7.092  0.3275  0.5641 -0.6611
    7MOL    C2813069   4.229  -0.631   7.201  0.1654  0.0773 -0.0093
    7MOL    C2913070   4.148  -0.631   6.978 -0.2384  0.1909 -0.0504
    7MOL    C3013071   4.218  -0.763   7.202 -0.1077  0.1041 -0.5659
    7MOL    C3113072   4.128  -0.768   6.987  0.1290 -0.5084 -0.0291
    7MOL    C3213073   4.151  -0.837   7.103 -0.3893  0.6023  0.4568
    7MOL    C3313074   4.132  -0.972   7.129  0.4702 -0.4148 -0.8750
    7MOL     N513075   4.050  -1.021   7.239 -0.4861 -1.0571 -0.2031
    7MOL     N613076   4.238  -1.069   7.110 -0.3156 -0.0745 -0.1033
    7MOL    C3413077   4.114  -1.139   7.276  0.1195 -0.4054  0.3532
    7MOL    C3513078   4.223  -1.161   7.209  0.0528  0.2173 -0.4383
    7MOL    C3613079   4.370  -1.017   7.065 -0.3206  0.5470 -0.3909
    7MOL     H113080   4.454  -1.089   7.098 -0.0574  0.0976  2.0277
    7MOL     H213081   4.393  -0.923   7.113  1.9434  1.6621 -0.7157
    7MOL     H313082   4.381  -1.005   6.962 -0.4990 -0.6471  0.4385
    7MOL    C3713083   3.983  -0.920   7.320 -0.3159  0.2608  0.1379
    7MOL    C3813084   4.027  -0.897   7.450  0.8896  0.5198 -0.6739
    7MOL    C3913085   3.992  -0.774   7.520 -0.1188  0.0152  0.5121
    7MOL    C4013086   3.914  -0.684   7.449  0.3469 -0.4247 -0.5030
    7MOL    C4113087   3.858  -0.715   7.325  0.8356  0.1735  0.3690
    7MOL    C4213088   3.893  -0.832   7.259  0.0370 -0.7545  0.5303
    7MOL    C4313089   4.326  -1.258   7.262  0.0253  0.0628 -0.5691
    7MOL     F713090   4.399  -1.325   7.175 -0.2569 -0.2610  0.5359
    7MOL     F813091   4.262  -1.342   7.347 -0.1884  0.1736 -0.2742
    7MOL     F913092   4.414  -1.187   7.328 -0.6546 -0.0791 -0.4125
    7MOL    C4413093   4.139  -0.201   7.071  0.7610 -0.4305  0.0722
    7MOL    C4513094   4.247  -0.202   7.144 -0.1251  0.7892  0.4057
    7MOL    C4613095   4.326  -0.082   7.207 -0.4304 -0.7677  0.2963
    7MOL    F1013096   4.285   0.031   7.148  0.1979  0.2089 -0.1180
    7MOL    F1113097   4.318  -0.064   7.342  0.0497 -0.0498 -0.0217
    7MOL     H413098   4.083  -0.107   7.052 -2.0984 -1.2173  1.2514
    7MOL     H513099   3.838  -0.329   7.012  2.6388 -0.2214  0.3962
    7MOL     H613100   3.708  -0.350   6.805 -0.9585 -0.9742  0.5915
    7MOL     H713101   4.194  -0.333   6.784 -0.0917  0.9081  0.5974
    7MOL     H813102   4.075  -0.296   6.581 -0.0312  0.3232  1.6973
    7MOL     H913103   3.906  -0.142   6.187 -0.6812 -0.4841 -0.6712
    7MOL    H1013104   3.743  -0.507   6.041  0.7267 -0.3445  0.5134
    7MOL    H1113105   3.684  -0.579   6.265 -0.8107  3.7380  2.1372
    7MOL    H1213106   4.089  -0.070   5.880 -0.1825 -0.8053  0.0371
    7MOL    H1313107   3.675  -0.113   6.038  1.6175 -1.2648  1.2144
    7MOL    H1413108   4.059   0.170   5.881  0.1226  1.6692 -1.3766
    7MOL     O413109   3.518   0.152   5.977 -0.1910  0.3740 -0.9037
    7MOL    H1513110   4.252  -0.582   7.297 -1.1034 -0.8123  0.3621
    7MOL    H1613111   4.259  -0.813   7.284  2.9914  0.0428 -1.8629
    7MOL    H1713112   4.124  -0.587   6.883  0.3487 -0.8084  2.4407
    7MOL    H1813113   4.045  -0.754   7.611 -0.4118 -2.2862  0.3505
    7MOL    H1913114   4.093  -0.977   7.495  2.8407 -2.2735 -2.8775
    7MOL    H2013115   3.801  -0.642   7.269  1.0652  1.1183  1.2142
    7MOL    H2113116   3.849  -0.851   7.164 -0.1617  1.2402 -0.1861
    7MOL    H2213117   4.073  -1.188   7.361 -2.0676  1.1197  0.5872
    7MOL    H2313118   4.102  -0.825   6.902  0.2862 -0.3815 -0.5852
    7MOL    F1213119   4.459  -0.088   7.181 -0.1656 -0.4276  0.2974
    7MOL    C4713120   4.415  -0.375   7.227  0.1999  0.3410 -0.1703
    7MOL    H2413121   4.441  -0.301   7.311 -2.4811 -0.1618 -1.5217
    7MOL    H2513122   4.502  -0.370   7.159  0.5579 -4.8247  1.9035
    7MOL    H2613123   4.406  -0.474   7.264 -0.0906 -0.7889  0.0272
    7MOL     N113124   3.985   0.561   6.320  0.1756  0.9180  0.1935
    7MOL     N213125   4.105   0.698   6.187  0.4468  0.5331 -0.5684
    7MOL     C113126   3.971   0.658   6.216  0.5835 -0.8508  0.4083
    7MOL     C213127   4.129   0.810   6.112 -0.4888 -0.0536  0.7759
    7MOL     C313128   4.101   0.799   5.976  0.5976  0.4835 -0.0183
    7MOL     C413129   4.098   0.916   5.899  0.2392 -0.9795 -0.7027
    7MOL     C513130   4.130   1.038   5.962  0.7505  0.7121 -0.4305
    7MOL     C613131   4.183   1.040   6.094 -0.6763  0.0081  0.2612
    7MOL     C713132   4.194   0.923   6.163 -0.2270 -0.0908 -0.1762
    7MOL     N313133   4.114   1.159   5.895 -0.6758  0.5734 -0.4365
    7MOL     C813134   4.223   1.248   5.883 -0.6005 -0.0326  0.4047
    7MOL     C913135   4.174   1.342   5.777 -0.0824 -0.2825  0.7715
    7MOL    C1013136   4.039   1.319   5.754 -0.3943 -0.7626  0.1350
    7MOL    C1113137   4.006   1.192   5.812 -0.2171  0.3312 -0.4452
    7MOL     O113138   3.905   1.123   5.794 -0.4875 -0.0530  0.1105
    7MOL    C1213139   4.233   1.456   5.725  0.3433 -0.2700 -0.9016
    7MOL    C1313140   4.157   1.552   5.654  0.1928 -0.5728 -0.4397
    7MOL    C1413141   4.018   1.514   5.614  0.2825  0.5931 -0.1262
    7MOL    C1513142   3.962   1.402   5.669  0.2760  0.0907 -0.2621
    7MOL    C1613143   4.118   1.776   5.552  0.3266  0.1151  0.6962
    7MOL    C1713144   4.062   1.867   5.641 -0.3002  0.1064 -0.4288
    7MOL    C1813145   3.950   1.941   5.595  0.3151 -0.1869  0.3726
    7MOL    C1913146   4.074   1.777   5.418  0.0144 -0.6598  0.0572
    7MOL    C2013147   3.899   1.927   5.468  0.0253  0.1661 -0.2346
    7MOL    C2113148   3.962   1.846   5.375  0.6843 -0.6719  0.1298
    7MOL    C2213149   4.230   1.671   5.593  0.2086 -0.0060  0.2041
    7MOL    C2313150   4.321   1.742   5.703 -0.4881 -0.0284  0.0826
    7MOL     F113151   4.274   1.712   5.827 -0.1499  0.8468 -0.1747
    7MOL     F213152   4.334   1.874   5.693 -0.3083  0.1931  0.3013
    7MOL     F313153   4.451   1.704   5.712  0.0513  0.5155 -0.1808
    7MOL    C2413154   4.338   1.633   5.481 -0.0788 -0.1653  1.0127
    7MOL     F413155   4.406   1.747   5.431  0.2279 -0.1650 -0.4429
    7MOL     F513156   4.285   1.568   5.380  0.5322 -0.3693  0.2629
    7MOL     F613157   4.422   1.545   5.529 -0.1623  0.8981  0.0151
    7MOL     O213158   4.321   1.247   5.952 -0.4425  0.3985 -0.2234
    7MOL    C2513159   3.847   2.023   5.664  0.2644 -0.3852 -0.2903
    7MOL     N413160   3.748   2.051   5.569  0.1300 -0.1527 -0.4499
    7MOL    C2613161   3.773   1.999   5.449  0.2172 -0.1045  0.7765
    7MOL     O313162   3.705   2.013   5.355  0.1949 -0.1789 -0.5025
    7MOL    C2713163   3.858   0.712   6.158  0.1075  0.1039 -0.2761
    7MOL    C2813164   3.841   0.685   6.025  0.1786 -0.1835  0.3428
    7MOL    C2913165   3.776   0.803   6.225  0.0269  0.5629 -0.1627
    7MOL    C3013166   3.753   0.758   5.950 -0.0963 -0.0270  0.2964
    7MOL    C3113167   3.678   0.872   6.151 -0.7581 -0.1928 -0.0795
    7MOL    C3213168   3.667   0.858   6.011  0.4761 -0.6319  0.9191
    7MOL    C3313169   3.555   0.899   5.938 -0.2951  0.8441 -0.3110
    7MOL     N513170   3.447   0.810   5.907 -0.0034  0.1981  0.2052
    7MOL     N613171   3.535   1.018   5.862 -0.3087 -0.2233  0.6109
    7MOL    C3413172   3.364   0.881   5.811 -0.9343  0.5920  0.4788
    7MOL    C3513173   3.418   0.998   5.782  0.4330 -0.0671 -0.8193
    7MOL    C3613174   3.615   1.143   5.883 -0.7230  0.3207  0.2445
    7MOL     H113175   3.680   1.165   5.790  1.3484  0.2205 -1.4837
    7MOL     H213176   3.671   1.130   5.970 -0.1111 -1.0765 -1.0605
    7MOL     H313177   3.534   1.223   5.898  2.1621  2.7232  2.7460
    7MOL    C3713178   3.459   0.674   5.924 -0.7235  0.0057  0.2851
    7MOL    C3813179   3.506   0.609   5.808 -0.8381  0.2937  0.2508
    7MOL    C3913180   3.558   0.478   5.821 -0.6647 -0.0548 -0.0782
    7MOL    C4013181   3.588   0.415   5.947  0.0193 -0.4788 -0.3456
    7MOL    C4113182   3.543   0.480   6.063  0.0631 -0.0341 -0.2459
    7MOL    C4213183   3.481   0.606   6.051  0.1740 -0.4715 -0.5145
    7MOL    C4313184   3.376   1.083   5.660  0.1386 -0.6810 -0.3096
    7MOL     F713185   3.398   1.216   5.677  0.0732 -0.4716 -0.2759
    7MOL     F813186   3.249   1.077   5.619  0.1293  0.4352  0.6951
    7MOL     F913187   3.454   1.051   5.558 -0.5199  0.3449 -0.0263
    7MOL    C4413188   4.188   0.629   6.286  0.2942 -0.4946 -0.5129
    7MOL    C4513189   4.116   0.556   6.370 -0.2908 -0.5104 -0.7076
    7MOL    C4613190   4.165   0.483   6.491 -0.2880  0.1517  0.3161
    7MOL    F1013191   4.295   0.458   6.500 -0.0412 -0.4344  0.5145
    7MOL    F1113192   4.140   0.546   6.607  0.1968  0.6400 -0.0305
    7MOL     H413193   4.294   0.654   6.282 -1.6202 -0.3823 -1.6848
    7MOL     H513194   4.079   0.698   5.932  3.1126  1.9063  1.3195
    7MOL     H613195   4.072   0.923   5.789  3.1240  1.9617 -1.4100
    7MOL     H713196   4.228   0.921   6.268  0.3016 -1.3631  1.6021
    7MOL     H813197   4.228   1.135   6.131  1.0126  2.1980  2.6827
    7MOL     H913198   4.336   1.473   5.754 -1.4631 -0.5176  1.3467
    7MOL    H1013199   3.961   1.577   5.551  0.2615 -2.3164 -0.6184
    7MOL    H1113200   3.854   1.388   5.647  0.4836  1.3679  0.6221
    7MOL    H1213201   4.114   1.698   5.346  3.9984 -3.2373 -2.4689
    7MOL    H1313202   4.089   1.877   5.746 -0.6918  2.7367  1.1640
    7MOL    H1413203   3.924   1.838   5.272  1.2233  0.8716 -0.0973
    7MOL     O413204   3.851   2.066   5.777 -0.8706 -0.1437 -0.1207
    7MOL    H1513205   3.899   0.619   5.973 -3.0984  2.9167 -2.3260
    7MOL    H1613206   3.748   0.744   5.842  0.9592  0.1351  0.3576
    7MOL    H1713207   3.794   0.829   6.325  0.7211 -0.6725  0.3067
    7MOL    H1813208   3.603   0.419   5.738  0.0565 -0.1965 -0.7433
    7MOL    H1913209   3.504   0.658   5.716  2.0322 -1.3480  0.9540
    7MOL    H2013210   3.556   0.439   6.165  2.2531 -1.6317  2.6362
    7MOL    H2113211   3.473   0.666   6.138 -1.8049  1.4101 -0.6651
    7MOL    H2213212   3.282   0.828   5.765 -1.5083  1.3307 -0.6344
    7MOL    H2313213   3.609   0.932   6.213 -2.7213 -0.5765 -0.3000
    7MOL    F1213214   4.121   0.356   6.496  0.5655  0.0862 -0.2134
    7MOL    C4713215   3.872   0.532   6.397 -0.7008  0.6263 -0.0992
    7MOL    H2413216   3.844   0.621   6.452 -0.1242  2.0685  0.9640
    7MOL    H2513217   3.894   0.450   6.476 -1.0089  0.9981 -3.1891
    7MOL    H2613218   3.795   0.504   6.330 -1.2579  0.7178 -2.0704
    7MOL     N113219   3.794   2.246   5.142 -0.0433 -0.2878  0.0748
    7MOL     N213220   3.684   2.073   5.036  0.2469 -0.1645  0.1607
    7MOL     C113221   3.668   2.186   5.116  0.0106  0.2318  0.0593
    7MOL     C213222   3.585   1.984   4.987 -0.7058 -0.2824 -0.7171
    7MOL     C313223   3.453   2.030   4.958 -0.9892 -0.2690 -0.0577
    7MOL     C413224   3.355   1.943   4.907  0.1020 -0.7384  0.6952
    7MOL     C513225   3.395   1.816   4.876  0.0378 -0.1846 -0.2067
    7MOL     C613226   3.524   1.776   4.895  0.2239  0.1148 -0.3201
    7MOL     C713227   3.624   1.856   4.952  0.1346  0.2456 -0.1042
    7MOL     N313228   3.301   1.716   4.855 -0.5567  0.2149 -0.1996
    7MOL     C813229   3.292   1.622   4.752 -0.5270  0.0769  0.4731
    7MOL     C913230   3.188   1.530   4.797  0.3498 -0.9157 -0.4264
    7MOL    C1013231   3.138   1.573   4.913  0.5155 -0.6489  0.3777
    7MOL    C1113232   3.205   1.695   4.954  0.1618  0.4479  0.0515
    7MOL     O113233   3.182   1.759   5.056  0.3083 -0.4641  0.1686
    7MOL    C1213234   3.141   1.414   4.739 -1.0296 -0.2102  0.1087
    7MOL    C1313235   3.029   1.348   4.800  0.0025 -0.3672  1.2060
    7MOL    C1413236   2.979   1.394   4.923  0.8879  0.3533 -0.7806
    7MOL    C1513237   3.037   1.504   4.982 -0.1973 -0.3029  0.0118
    7MOL    C1613238   2.809   1.252   4.750 -0.2657  0.1538 -0.4363
    7MOL    C1713239   2.753   1.377   4.704  0.2709  0.2044  0.2871
    7MOL    C1813240   2.620   1.404   4.717  0.2266  0.1106  0.5714
    7MOL    C1913241   2.719   1.156   4.801  0.3410 -0.0392 -0.7627
    7MOL    C2013242   2.538   1.313   4.789 -0.0488  0.0576  0.5705
    7MOL    C2113243   2.586   1.190   4.833 -0.0709  0.1470  0.1341
    7MOL    C2213244   2.963   1.234   4.737 -0.1860  0.4222 -0.6775
    7MOL    C2313245   2.992   1.211   4.584 -1.1413  0.2226  0.4440
    7MOL     F113246   2.975   1.323   4.515 -0.1216  0.4624  0.5482
    7MOL     F213247   2.914   1.120   4.529 -0.1662  0.0235  0.1106
    7MOL     F313248   3.117   1.171   4.553 -0.6449  0.9092 -0.0603
    7MOL    C2413249   3.015   1.114   4.816 -0.1037  0.6034 -0.0618
    7MOL     F413250   3.151   1.101   4.787  0.1310 -0.1209  0.7327
    7MOL     F513251   2.959   0.994   4.774  0.0061 -0.1630  0.0864
    7MOL     F613252   2.991   1.118   4.950 -0.8747  0.6618  0.7631
    7MOL     O213253   3.364   1.615   4.653  0.0013  0.1348 -0.5207
    7MOL    C2513254   2.551   1.534   4.696 -0.5404  1.2287 -0.2084
    7MOL     N413255   2.425   1.510   4.752  0.2090 -0.0839 -0.0535
    7MOL    C2613256   2.412   1.387   4.813 -0.5524 -0.6454 -0.2856
    7MOL     O313257   2.306   1.345   4.858 -0.0990 -0.2230 -0.4252
    7MOL    C2713258   3.548   2.214   5.187  0.2161 -0.1906 -0.1828
    7MOL    C2813259   3.472   2.114   5.243 -0.2308  0.0255 -0.1661
    7MOL    C2913260   3.495   2.344   5.177 -0.0384 -0.3262  0.0907
    7MOL    C3013261   3.349   2.138   5.303 -0.0842 -0.1909 -0.5292
    7MOL    C3113262   3.379   2.372   5.247 -0.0905 -0.9344  0.4215
    7MOL    C3213263   3.310   2.274   5.321  1.0207 -0.3849  0.6319
    7MOL    C3313264   3.217   2.295   5.426 -0.5973 -0.2798 -0.4312
    7MOL     N513265   3.250   2.274   5.558  0.0349  0.4833  0.2939
    7MOL     N613266   3.092   2.367   5.409 -0.3098 -0.0003  0.0974
    7MOL    C3413267   3.161   2.353   5.624  0.3772 -0.0784 -0.3226
    7MOL    C3513268   3.068   2.397   5.540  0.5921 -0.6045  0.1512
    7MOL    C3613269   3.070   2.467   5.310 -0.4496 -0.8578  0.8298
    7MOL     H113270   3.095   2.559   5.358  0.4236 -0.4618 -2.4975
    7MOL     H213271   2.963   2.484   5.276  0.1790  1.3957  0.6125
    7MOL     H313272   3.136   2.443   5.225  0.5266  0.5132 -1.1955
    7MOL    C3713273   3.371   2.237   5.591 -0.2411  0.2073 -0.3964
    7MOL    C3813274   3.481   2.308   5.545 -0.7507 -0.3438 -0.1315
    7MOL    C3913275   3.610   2.247   5.543 -0.0731 -1.0632 -0.6700
    7MOL    C4013276   3.622   2.119   5.591  0.2492 -0.2230 -0.5226
    7MOL    C4113277   3.510   2.047   5.639 -0.1536 -1.1097  0.9181
    7MOL    C4213278   3.384   2.105   5.634 -0.1712 -1.1467  0.3175
    7MOL    C4313279   2.941   2.478   5.574 -1.2813  1.0984 -0.2100
    7MOL     F713280   2.968   2.608   5.545 -0.3308 -0.2838  0.6659
    7MOL     F813281   2.899   2.458   5.701 -0.0530  0.0500 -0.3184
    7MOL     F913282   2.839   2.426   5.502 -0.4936  0.5963  0.5188
    7MOL    C4413283   3.820   2.053   5.028  0.0005 -0.5084  0.3423
    7MOL    C4513284   3.885   2.153   5.085 -0.5949 -0.7984 -0.0162
    7MOL    C4613285   4.034   2.155   5.099  0.6497  0.0744  0.0871
    7MOL    F1013286   4.095   2.027   5.065  0.1605 -0.5142 -0.5545
    7MOL    F1113287   4.087   2.258   5.034 -0.0985  0.1766  0.0182
    7MOL     H413288   3.864   1.970   4.980  2.2184 -1.4007 -0.7442
    7MOL     H513289   3.418   2.126   4.990  0.9158  3.1063 -4.1676
    7MOL     H613290   3.251   1.971   4.891 -0.7238 -1.8002 -2.1968
    7MOL     H713291   3.715   1.816   4.968  0.3174 -0.0756  1.1108
    7MOL     H813292   3.546   1.671   4.859  0.7601 -0.8440 -3.1388
    7MOL     H913293   3.195   1.381   4.648  0.1627 -3.5460 -0.5211
    7MOL    H1013294   2.895   1.344   4.969 -1.7085 -1.9704 -0.4215
    7MOL    H1113295   3.010   1.533   5.085  0.7787 -0.7980 -0.5079
    7MOL    H1213296   2.753   1.059   4.832 -1.4897  1.6405 -3.9597
    7MOL    H1313297   2.815   1.453   4.656  0.6779 -1.3262 -3.2656
    7MOL    H1413298   2.526   1.122   4.884  2.0398  0.5318  1.3857
    7MOL     O413299   2.600   1.631   4.644  0.5788  0.1580 -0.8143
    7MOL    H1513300   3.511   2.011   5.245  3.0014 -1.5264  1.0782
    7MOL    H1613301   3.303   2.063   5.363  0.1224 -1.0493 -4.9302
    7MOL    H1713302   3.547   2.426   5.127 -1.6994  0.9882 -1.5024
    7MOL    H1813303   3.707   2.291   5.501  2.1159 -0.2947 -0.8416
    7MOL    H1913304   3.469   2.409   5.514 -0.6217  1.0627  1.8161
    7MOL    H2013305   3.524   1.944   5.658  1.7624 -1.1839 -0.3440
    7MOL    H2113306   3.299   2.046   5.659 -0.5636 -1.3279 -0.8228
    7MOL    H2213307   3.166   2.362   5.732 -0.1559 -0.9931 -0.0138
    7MOL    H2313308   3.332   2.473   5.253 -1.0656  2.0653 -1.3005
    7MOL    F1213309   4.067   2.176   5.228 -0.2712  0.0580  0.0465
    7MOL    C4713310   3.830   2.312   5.270  0.5691 -0.0305  0.2131
    7MOL    H2413311   3.925   2.363   5.264  1.5885 -0.0498 -1.3641
    7MOL    H2513312   3.852   2.246   5.353 -1.5145 -0.6452 -0.8303
    7MOL    H2613313   3.752   2.387   5.298 -0.5865  0.5710  1.3436
    7MOL    H2713314   2.341   1.574   4.739  2.8205  0.6244  3.9927
    8MOL     N113315   1.859   0.056   2.420  0.7824 -0.4425  0.3837
    8MOL     N213316   1.875  -0.138   2.528  0.0978 -0.0524  0.3328
    8MOL     C113317   1.844  -0.005   2.547  0.4154 -0.8509 -0.2253
    8MOL     C213318   1.896  -0.237   2.626  0.2766 -0.0734 -0.1642
    8MOL     C313319   1.960  -0.213   2.752  0.0963 -0.0546  0.3420
    8MOL     C413320   1.989  -0.317   2.840  0.0059  0.1123  0.5815
    8MOL     C513321   1.964  -0.447   2.797  0.5186 -0.7783  0.1307
    8MOL     C613322   1.895  -0.472   2.674 -1.1217  0.0287  0.1037
    8MOL     C713323   1.857  -0.365   2.595  0.2744  0.1407 -0.0498
    8MOL     N313324   2.007  -0.559   2.868  0.0606  0.5036 -1.0918
    8MOL     C813325   2.130  -0.568   2.926 -0.0433  0.2364 -0.3828
    8MOL     C913326   2.143  -0.698   2.997  0.1460 -0.0218 -0.3543
    8MOL    C1013327   2.016  -0.756   2.989 -0.7826  0.0348 -0.0313
    8MOL    C1113328   1.936  -0.667   2.906  0.7105  0.1084 -0.1905
    8MOL     O113329   1.819  -0.692   2.870  0.4552 -0.1535  0.2423
    8MOL    C1213330   2.251  -0.757   3.066  0.1191 -0.1275  0.4642
    8MOL    C1313331   2.233  -0.887   3.123 -0.1746 -0.3264  0.5484
    8MOL    C1413332   2.096  -0.938   3.125 -0.5556  0.6011  0.7644
    8MOL    C1513333   1.995  -0.883   3.045 -0.0363 -0.5187 -0.1449
    8MOL    C1613334   2.335  -0.992   3.334  0.4697 -0.8976 -0.0129
    8MOL    C1713335   2.374  -1.114   3.396  0.4553 -0.1169 -0.1610
    8MOL    C1813336   2.400  -1.122   3.534 -0.2649  0.2703  0.4709
    8MOL    C1913337   2.305  -0.883   3.424  0.0766 -0.7547  0.2698
    8MOL    C2013338   2.390  -1.014   3.611 -0.6693 -0.7007 -0.0820
    8MOL    C2113339   2.337  -0.895   3.560  0.1834 -0.2469  0.2883
    8MOL    C2213340   2.346  -0.976   3.187 -0.1776  0.4042 -0.0082
    8MOL    C2313341   2.338  -1.117   3.115 -0.2194 -0.0986 -0.6562
    8MOL     F113342   2.309  -1.103   2.985 -0.4623 -0.4918  0.0253
    8MOL     F213343   2.235  -1.190   3.171  0.3410 -0.0102  0.4037
    8MOL     F313344   2.444  -1.195   3.113  0.9445  0.4779  0.0150
    8MOL    C2413345   2.488  -0.917   3.163  0.0188  0.3405  0.5162
    8MOL     F413346   2.496  -0.791   3.204  0.7570 -0.3196 -0.5220
    8MOL     F513347   2.515  -0.919   3.033  0.1481  0.2045  0.2483
    8MOL     F613348   2.587  -0.974   3.232  0.5777 -0.1642 -0.4991
    8MOL     O213349   2.219  -0.478   2.938  0.1181  0.5814  0.1962
    8MOL    C2513350   2.469  -1.229   3.608  0.3727 -0.0091  0.4305
    8MOL     N413351   2.507  -1.183   3.726 -0.4574 -0.5854 -0.3291
    8MOL    C2613352   2.444  -1.058   3.748 -0.2056  0.1331  0.1780
    8MOL     O313353   2.444  -1.001   3.854  0.0684  0.4335  0.0700
    8MOL    C2713354   1.806   0.057   2.663  0.0010 -0.7728 -0.0765
    8MOL    C2813355   1.883   0.161   2.719  0.5199  0.1496  0.4179
    8MOL    C2913356   1.690   0.032   2.726  0.8037  0.0149  0.5509
    8MOL    C3013357   1.841   0.231   2.833  0.1647 -0.0070  0.2475
    8MOL    C3113358   1.639   0.107   2.841 -0.5742  0.1562 -0.0924
    8MOL    C3213359   1.720   0.199   2.901 -0.2335 -0.5397  0.0152
    8MOL    C3313360   1.692   0.259   3.026  0.2628  0.6001 -0.7446
    8MOL     N513361   1.614   0.209   3.138  0.1554  0.5369  0.5243
    8MOL     N613362   1.732   0.386   3.072  0.1094 -0.5426  0.5073
    8MOL    C3413363   1.650   0.289   3.251  0.3969  0.2270  0.6477
    8MOL    C3513364   1.723   0.389   3.211 -1.0538 -0.2401 -0.2229
    8MOL    C3613365   1.720   0.499   2.983  0.5050  0.3478 -0.6192
    8MOL     H113366   1.716   0.473   2.878 -2.5590 -1.3388  1.5242
    8MOL     H213367   1.808   0.562   2.989  1.7366 -0.5889 -1.0429
    8MOL     H313368   1.636   0.561   3.012  5.3440  0.4767  1.3201
    8MOL    C3713369   1.519   0.107   3.139  0.3685  0.2637 -0.0313
    8MOL    C3813370   1.560  -0.027   3.156  0.1370  0.3045 -0.1329
    8MOL    C3913371   1.460  -0.129   3.141 -0.2498  0.8664  0.4101
    8MOL    C4013372   1.323  -0.095   3.136 -0.6943  0.3593 -0.8178
    8MOL    C4113373   1.284   0.042   3.128 -0.6501 -0.2195  1.1851
    8MOL    C4213374   1.387   0.143   3.123  0.1891 -0.2002 -0.3567
    8MOL    C4313375   1.797   0.489   3.293 -0.3379 -0.8557 -0.1414
    8MOL     F713376   1.932   0.454   3.284 -0.0049  0.4049  0.6942
    8MOL     F813377   1.754   0.498   3.420  0.5946 -0.3298  0.1123
    8MOL     F913378   1.793   0.619   3.247 -0.4216  0.3629  0.0436
    8MOL    C4413379   1.920  -0.160   2.396  0.8603  0.3471 -0.9531
    8MOL    C4513380   1.904  -0.044   2.329  0.5106 -0.3371  0.0174
    8MOL    C4613381   1.958  -0.014   2.190  0.4283 -0.2982  0.5708
    8MOL    F1013382   2.007   0.114   2.181  0.3521  0.7334  0.1820
    8MOL    F1113383   2.055  -0.100   2.142 -0.3202  0.2337  0.1616
    8MOL     H413384   1.959  -0.262   2.365 -0.5150 -2.2829  0.6867
    8MOL     H513385   1.984  -0.112   2.777 -1.4359  0.2052  1.6348
    8MOL     H613386   2.033  -0.296   2.938  1.3219 -1.2938 -0.5048
    8MOL     H713387   1.793  -0.393   2.509  0.3415 -0.0998  1.1305
    8MOL     H813388   1.869  -0.577   2.648 -0.5144  0.4982  1.0438
    8MOL     H913389   2.348  -0.695   3.071 -2.2052  0.5992 -0.1924
    8MOL    H1013390   2.067  -1.033   3.181  1.0509  1.1711 -2.6634
    8MOL    H1113391   1.894  -0.923   3.053 -1.3808  1.3670 -1.7450
    8MOL    H1213392   2.284  -0.788   3.382  0.1834 -0.2560 -0.9799
    8MOL    H1313393   2.403  -1.203   3.352 -1.2001  0.8915  1.7334
    8MOL    H1413394   2.350  -0.803   3.617  0.7862 -0.9594 -2.7095
    8MOL     O413395   2.491  -1.345   3.569 -0.0369  0.4024  0.4174
    8MOL    H1513396   1.978   0.186   2.676 -1.1703  0.0781 -2.9775
    8MOL    H1613397   1.913   0.302   2.875  1.2070 -1.5607 -3.4109
    8MOL    H1713398   1.617  -0.041   2.682 -1.3033 -1.7250 -0.9444
    8MOL    H1813399   1.488  -0.234   3.155  0.2915 -1.5057 -0.1388
    8MOL    H1913400   1.252  -0.176   3.131 -2.1286  2.2137 -4.9022
    8MOL    H2013401   1.666  -0.053   3.169  0.2174 -0.2595  3.3762
    8MOL    H2113402   1.178   0.065   3.133 -0.1227 -0.1988  0.1915
    8MOL    H2213403   1.365   0.249   3.127  0.8369  2.4042 -1.0707
    8MOL    H2313404   1.610   0.275   3.352 -0.3192 -0.5777 -0.8632
    8MOL    H2413405   1.543   0.081   2.877  0.2307 -0.2662 -0.2001
    8MOL    F1213406   1.854  -0.014   2.105 -0.6180  0.1032 -0.0065
    8MOL    C4713407   1.810   0.200   2.390  0.3167 -0.2304 -0.2164
    8MOL    H2513408   1.725   0.201   2.324 -1.9018 -0.5876  0.7392
    8MOL    H2613409   1.882   0.252   2.349 -1.1618 -3.2788  3.1787
    8MOL    H2713410   1.784   0.246   2.479 -0.6141 -1.7250  1.1438
    8MOL     N113411   2.684  -0.762   4.392  0.6470  0.0933 -0.2013
    8MOL     N213412   2.583  -0.742   4.179 -0.2528  0.0503 -1.0897
    8MOL     C113413   2.668  -0.825   4.265 -0.5043  0.1944  0.7125
    8MOL     C213414   2.572  -0.740   4.037  0.1097  0.4003 -0.7522
    8MOL     C313415   2.646  -0.842   3.967 -0.4017  0.6434  0.7191
    8MOL     C413416   2.685  -0.814   3.833  0.1157  0.5469  0.2021
    8MOL     C513417   2.641  -0.694   3.775 -0.2867 -0.3509  0.0526
    8MOL     C613418   2.534  -0.616   3.830  0.0146  0.1399 -0.3212
    8MOL     C713419   2.502  -0.641   3.961  0.3879 -0.2908 -0.7850
    8MOL     N313420   2.714  -0.656   3.664 -0.2321  0.6845  0.1630
    8MOL     C813421   2.669  -0.662   3.535  0.3973  0.3376  0.1052
    8MOL     C913422   2.777  -0.603   3.450  0.0386 -0.5505 -0.1836
    8MOL    C1013423   2.871  -0.553   3.538 -0.1295 -0.4512 -0.8185
    8MOL    C1113424   2.833  -0.583   3.677  0.3967 -0.4695 -0.1682
    8MOL     O113425   2.893  -0.566   3.779 -0.1370  0.1111 -0.0355
    8MOL    C1213426   2.785  -0.581   3.309  0.1451 -0.2965  0.0595
    8MOL    C1313427   2.901  -0.523   3.254 -0.9519  0.1727 -0.2999
    8MOL    C1413428   3.010  -0.489   3.350  1.0086 -0.6166  0.6651
    8MOL    C1513429   2.992  -0.502   3.490  0.0497  0.0563  0.3956
    8MOL    C1613430   2.912  -0.615   3.007  0.1677 -0.4799 -0.0659
    8MOL    C1713431   2.898  -0.743   3.057 -0.7338 -0.2678 -0.1639
    8MOL    C1813432   2.876  -0.848   2.965  0.5732 -0.2837 -0.2225
    8MOL    C1913433   2.901  -0.591   2.864 -0.5251 -0.7187  0.2776
    8MOL    C2013434   2.869  -0.826   2.832 -0.0772 -0.0556 -0.2049
    8MOL    C2113435   2.875  -0.694   2.780  0.5130 -0.9332  0.2402
    8MOL    C2213436   2.903  -0.491   3.099  0.2518  0.3206 -0.1225
    8MOL    C2313437   2.770  -0.414   3.063  1.3924 -0.3936 -0.5762
    8MOL     F113438   2.721  -0.342   3.170 -0.4495 -0.3720  0.4812
    8MOL     F213439   2.679  -0.510   3.029 -0.0092 -0.3367 -0.1154
    8MOL     F313440   2.777  -0.339   2.954  0.1900 -0.1310 -0.5742
    8MOL    C2413441   3.032  -0.405   3.072  0.0621  0.3429 -0.3714
    8MOL     F413442   3.042  -0.360   2.940  0.1280 -0.1128  0.4074
    8MOL     F513443   3.140  -0.478   3.097 -0.2162  0.3010 -0.3048
    8MOL     F613444   3.045  -0.294   3.147  0.6440 -0.0059  0.1049
    8MOL     O213445   2.552  -0.705   3.510 -0.1005 -0.1506 -0.3646
    8MOL    C2513446   2.846  -0.995   2.996 -0.0174 -0.2586 -0.2867
    8MOL     N413447   2.823  -1.049   2.869 -0.0518 -0.0969  0.0821
    8MOL    C2613448   2.835  -0.960   2.771  0.5726  0.3515  0.3581
    8MOL     O313449   2.788  -0.979   2.660 -0.6676  0.0693 -0.4479
    8MOL    C2713450   2.726  -0.953   4.242 -0.4813  0.0614 -0.0125
    8MOL    C2813451   2.668  -1.056   4.309  0.9190 -0.6173  0.3653
    8MOL    C2913452   2.846  -0.979   4.172  0.1580 -0.1675 -1.0488
    8MOL    C3013453   2.723  -1.183   4.313 -0.0545 -0.4892 -0.4408
    8MOL    C3113454   2.894  -1.113   4.159  0.7236  0.7313  0.1065
    8MOL    C3213455   2.829  -1.213   4.232  0.6348  0.2862  0.4001
    8MOL    C3313456   2.872  -1.344   4.209  0.0720  0.2390  0.0315
    8MOL     N513457   2.837  -1.422   4.098  0.6361 -0.5966  0.5143
    8MOL     N613458   2.943  -1.425   4.301 -0.0062  0.2837 -0.2195
    8MOL    C3413459   2.903  -1.542   4.116  0.3035  0.4455 -0.0211
    8MOL    C3513460   2.960  -1.548   4.237  1.0517 -0.4779 -0.0132
    8MOL    C3613461   2.950  -1.407   4.448 -0.2213  0.0805  0.5320
    8MOL     H113462   2.903  -1.500   4.502 -1.4449 -0.3341  1.3348
    8MOL     H213463   2.895  -1.320   4.470  2.3543  2.3539 -1.4340
    8MOL     H313464   3.056  -1.391   4.476 -2.1962 -0.1553 -0.4548
    8MOL    C3713465   2.755  -1.379   4.002  0.2237  0.5534  0.8749
    8MOL    C3813466   2.620  -1.361   4.031  0.3625  0.0339 -0.2830
    8MOL    C3913467   2.535  -1.310   3.932 -0.2240  0.3381  0.1180
    8MOL    C4013468   2.592  -1.258   3.813  0.3112 -0.2847 -0.0267
    8MOL    C4113469   2.726  -1.264   3.791 -0.1583  0.3392  0.3362
    8MOL    C4213470   2.811  -1.328   3.881 -0.7834 -0.0340 -0.6852
    8MOL    C4313471   3.020  -1.670   4.301 -0.2184  0.1204  0.2181
    8MOL     F713472   2.956  -1.701   4.427  0.5983  0.1295 -0.3017
    8MOL     F813473   3.148  -1.640   4.335 -0.0527  0.2024  0.3298
    8MOL     F913474   3.022  -1.769   4.210 -0.0942  0.6851  0.2458
    8MOL    C4413475   2.566  -0.632   4.265  0.1839 -0.1218 -0.3118
    8MOL    C4513476   2.623  -0.641   4.381 -0.4997  0.4267 -0.1293
    8MOL    C4613477   2.645  -0.523   4.483 -0.4531  0.5289 -0.6416
    8MOL    F1013478   2.598  -0.410   4.417  0.3208 -0.3625  0.3253
    8MOL    F1113479   2.570  -0.542   4.594  0.1926  0.0343  0.2924
    8MOL     H413480   2.523  -0.548   4.221  1.9214  0.0678  0.0248
    8MOL     H513481   2.666  -0.942   4.009  2.1971 -0.4460  0.3935
    8MOL     H613482   2.745  -0.879   3.779 -1.1533 -0.9047  0.3719
    8MOL     H713483   2.434  -0.568   4.010  0.0035 -2.2277 -0.8706
    8MOL     H813484   2.515  -0.523   3.777  3.1117 -0.3151 -1.6699
    8MOL     H913485   2.702  -0.607   3.246  0.1338  1.4093 -0.8141
    8MOL    H1013486   3.104  -0.458   3.316 -1.3028  1.3906 -1.3179
    8MOL    H1113487   3.070  -0.487   3.564 -1.7692 -1.5637 -2.0673
    8MOL    H1213488   2.897  -0.489   2.818 -0.1017 -0.3349 -2.8168
    8MOL    H1313489   2.901  -0.771   3.169 -2.0652  0.6359 -1.1359
    8MOL    H1413490   2.859  -0.675   2.676  2.1254 -2.4980  3.9250
    8MOL     O413491   2.824  -1.050   3.099  0.4541  0.1513 -0.2329
    8MOL    H1513492   2.589  -1.026   4.369 -0.9528  3.1838 -0.5591
    8MOL    H1613493   2.676  -1.249   4.375  1.4934  1.0798 -3.2537
    8MOL    H1713494   2.894  -0.897   4.117  2.0750 -0.0433  1.1980
    8MOL    H1813495   2.429  -1.299   3.946  0.6356 -1.6459 -2.3693
    8MOL    H1913496   2.583  -1.382   4.125 -1.3302 -0.3599  0.0994
    8MOL    H2013497   2.752  -1.219   3.698  1.4364  1.6707 -1.5660
    8MOL    H2113498   2.915  -1.340   3.860 -0.9061  0.0888 -3.0511
    8MOL    H2213499   2.892  -1.627   4.043  1.9810 -0.8226  0.7747
    8MOL    H2313500   2.985  -1.135   4.093  0.3115 -0.0546 -0.0071
    8MOL    F1213501   2.767  -0.488   4.528 -0.2887 -0.4465 -0.2124
    8MOL    C4713502   2.793  -0.799   4.488 -0.0962 -0.3421 -0.3786
    8MOL    H2413503   2.755  -0.780   4.589 -3.6760  0.1998 -1.5793
    8MOL    H2513504   2.885  -0.751   4.477  2.8769 -0.5530 -1.4323
    8MOL    H2613505   2.817  -0.897   4.473  0.8313 -0.8832 -1.4008
    8MOL     N113506   2.438  -0.829   2.646 -0.9080  0.4533 -0.2332
    8MOL     N213507   2.580  -0.823   2.457  0.4751  0.0654  0.7383
    8MOL     C113508   2.493  -0.907   2.535  0.0083  0.4948  0.0603
    8MOL     C213509   2.595  -0.827   2.318  0.2216 -0.6709  0.5536
    8MOL     C313510   2.668  -0.925   2.252  0.2557  0.1089 -0.1886
    8MOL     C413511   2.680  -0.933   2.107 -0.7826  0.1525  0.4594
    8MOL     C513512   2.616  -0.839   2.024  0.2018  0.1794  0.2512
    8MOL     C613513   2.568  -0.719   2.087 -0.4678 -0.0697 -0.3586
    8MOL     C713514   2.554  -0.723   2.229 -0.3661 -0.1758  0.8918
    8MOL     N313515   2.606  -0.855   1.884  0.1462 -0.0949 -0.0332
    8MOL     C813516   2.647  -0.759   1.790 -0.1439  0.0613  0.3387
    8MOL     C913517   2.637  -0.829   1.661  0.2168 -0.0074  0.0791
    8MOL    C1013518   2.580  -0.955   1.680 -0.2828 -0.3653  0.3188
    8MOL    C1113519   2.560  -0.972   1.825  0.0420  0.2024 -0.0342
    8MOL     O113520   2.515  -1.071   1.888 -0.3397 -0.0028  0.0869
    8MOL    C1213521   2.694  -0.794   1.540 -0.2675  0.4402 -0.2108
    8MOL    C1313522   2.701  -0.890   1.438 -0.6500  0.1963  0.1455
    8MOL    C1413523   2.632  -1.014   1.449  0.2228 -0.1787  0.3521
    8MOL    C1513524   2.572  -1.049   1.573 -0.3469 -0.4116  0.4053
    8MOL    C1613525   2.941  -0.820   1.396 -0.7746 -0.1379 -0.1377
    8MOL    C1713526   2.981  -0.883   1.521 -0.2107 -0.3179  0.4287
    8MOL    C1813527   3.086  -0.825   1.597 -0.6902 -0.6510 -0.3240
    8MOL    C1913528   3.034  -0.734   1.329 -0.3071  0.4538  0.0570
    8MOL    C2013529   3.163  -0.729   1.533  0.0427  0.1401 -0.1760
    8MOL    C2113530   3.152  -0.687   1.394  0.9970 -0.6539  0.0334
    8MOL    C2213531   2.805  -0.866   1.326  0.2885 -0.5964  1.1138
    8MOL    C2313532   2.835  -0.997   1.247  0.3636  0.0186  0.8001
    8MOL     F113533   2.937  -0.974   1.167 -0.7397 -0.3773 -0.3577
    8MOL     F213534   2.733  -1.041   1.172 -0.3096  0.1475  0.1683
    8MOL     F313535   2.871  -1.099   1.335  0.3716  0.1190  0.3059
    8MOL    C2413536   2.745  -0.755   1.234 -0.0618  0.5273 -1.0620
    8MOL     F413537   2.756  -0.627   1.291  0.6544  0.3276 -0.7011
    8MOL     F513538   2.618  -0.774   1.198 -0.2293  0.4921 -0.5354
    8MOL     F613539   2.815  -0.739   1.123 -0.3555  0.2832 -0.1200
    8MOL     O213540   2.685  -0.646   1.821 -0.8866  0.3618  0.1958
    8MOL    C2513541   3.111  -0.814   1.745  0.1882 -0.6556  0.3280
    8MOL     N413542   3.214  -0.726   1.762  0.7661  0.8416 -0.2234
    8MOL    C2613543   3.247  -0.668   1.641  0.0788  0.2441  0.3825
    8MOL     O313544   3.323  -0.577   1.627 -0.8121 -0.4592 -0.3264
    8MOL    C2713545   2.476  -1.049   2.528  1.0005 -0.4596  0.1991
    8MOL    C2813546   2.583  -1.125   2.511 -0.2890  0.5055 -0.5007
    8MOL    C2913547   2.356  -1.118   2.562 -0.2293 -0.4400 -0.2924
    8MOL    C3013548   2.589  -1.263   2.505 -0.0902  0.8362 -0.5183
    8MOL    C3113549   2.347  -1.261   2.570 -0.7454 -0.6062 -0.0987
    8MOL    C3213550   2.467  -1.334   2.544 -0.4684  0.5514  0.0846
    8MOL    C3313551   2.482  -1.470   2.584 -0.2424 -0.1119  0.3234
    8MOL     N513552   2.579  -1.518   2.684  0.3366 -0.6325  0.3806
    8MOL     N613553   2.406  -1.588   2.542 -0.4839  0.1985 -0.5571
    8MOL    C3413554   2.539  -1.650   2.710  0.2703 -0.0665 -1.0031
    8MOL    C3513555   2.448  -1.696   2.629 -0.0983 -0.2358 -0.3659
    8MOL    C3613556   2.277  -1.590   2.478 -0.2186 -0.9185  0.4406
    8MOL     H113557   2.207  -1.652   2.539  0.0092  1.5481 -0.3334
    8MOL     H213558   2.294  -1.635   2.381 -1.3930  0.7917  0.6142
    8MOL     H313559   2.229  -1.490   2.471 -0.3397  0.1541 -1.8307
    8MOL    C3713560   2.648  -1.427   2.768  0.4166  0.6637  0.2684
    8MOL    C3813561   2.570  -1.314   2.818 -0.1712  0.0300 -0.3657
    8MOL    C3913562   2.631  -1.195   2.866  0.4580 -0.2454  0.3129
    8MOL    C4013563   2.767  -1.180   2.842 -0.7468  0.3905  0.1307
    8MOL    C4113564   2.848  -1.290   2.804  0.8750 -0.3211 -0.4466
    8MOL    C4213565   2.785  -1.413   2.763 -0.2859  0.6066  0.1067
    8MOL    C4313566   2.396  -1.838   2.609 -0.6331 -0.3028 -0.0756
    8MOL     F713567   2.299  -1.866   2.512  0.2388 -0.3788 -0.3201
    8MOL     F813568   2.346  -1.884   2.727  0.0194  0.0910  0.3292
    8MOL     F913569   2.497  -1.914   2.577 -0.5764  0.2979 -0.7972
    8MOL    C4413570   2.589  -0.711   2.540 -0.2591 -0.0628 -0.7930
    8MOL    C4513571   2.508  -0.707   2.640 -0.5576 -0.3402  0.1831
    8MOL    C4613572   2.489  -0.584   2.729 -0.0714 -0.3984 -0.1589
    8MOL    F1013573   2.603  -0.510   2.730  0.1673  0.1767 -0.1685
    8MOL    F1113574   2.380  -0.515   2.681  0.5672  0.0490  0.1733
    8MOL     H413575   2.661  -0.633   2.512  1.6900 -1.2467 -0.5218
    8MOL     H513576   2.710  -1.004   2.318  0.3435 -0.6550  1.2603
    8MOL     H613577   2.739  -1.015   2.068 -1.8241 -0.6253 -0.6330
    8MOL     H713578   2.507  -0.638   2.276  2.7308  1.1730 -2.8810
    8MOL     H813579   2.511  -0.642   2.035  1.3479  0.3912  0.8686
    8MOL     H913580   2.752  -0.703   1.539 -0.9846 -2.0289  1.3231
    8MOL    H1013581   2.630  -1.088   1.369 -0.3198 -0.3144  1.5933
    8MOL    H1113582   2.524  -1.148   1.581  0.0465 -0.0254 -0.4332
    8MOL    H1213583   3.023  -0.717   1.220 -0.7266 -0.6109  0.2753
    8MOL    H1313584   2.910  -0.955   1.574 -0.5481  0.7821  1.9239
    8MOL    H1413585   3.211  -0.606   1.354  0.8906  0.3878  0.5686
    8MOL     O413586   3.050  -0.873   1.833 -0.0800  0.9689 -0.6817
    8MOL    H1513587   2.673  -1.072   2.487  1.1950  0.2943 -1.2687
    8MOL    H1613588   2.686  -1.308   2.499  1.1108  0.0475  0.6593
    8MOL    H1713589   2.270  -1.059   2.597 -0.4821 -0.8512 -1.5712
    8MOL    H1813590   2.569  -1.115   2.907 -1.8881 -0.3761  1.5281
    8MOL    H1913591   2.465  -1.322   2.834  0.1889  0.3519 -1.6117
    8MOL    H2013592   2.956  -1.280   2.787  2.1482 -4.1019 -2.9607
    8MOL    H2113593   2.846  -1.491   2.717 -1.5295 -1.7538  2.7277
    8MOL    H2213594   2.597  -1.700   2.789  1.2730  1.6265  0.0356
    8MOL    H2313595   2.253  -1.305   2.590 -0.6349 -2.1544 -1.0637
    8MOL    F1213596   2.463  -0.616   2.856  0.1170 -0.3508 -0.3274
    8MOL    C4713597   2.355  -0.884   2.761 -0.4111  0.4828 -0.2628
    8MOL    H2413598   2.259  -0.847   2.742 -0.5603 -1.4183  2.7968
    8MOL    H2513599   2.390  -0.849   2.861  0.4621  1.8399  0.5977
    8MOL    H2613600   2.361  -0.991   2.759 -0.8559 -1.0555  0.4884
    8MOL     N113601   3.788  -0.790   1.628  0.0933  0.4343 -0.7869
    8MOL     N213602   3.760  -0.603   1.497  0.2835  0.4970 -0.1516
    8MOL     C113603   3.735  -0.657   1.628  0.5181 -0.1312 -0.1384
    8MOL     C213604   3.715  -0.482   1.447  0.0426  0.4377  0.0154
    8MOL     C313605   3.696  -0.368   1.532  0.0592  0.6492 -0.4170
    8MOL     C413606   3.651  -0.248   1.482  0.4926 -0.1060 -1.1368
    8MOL     C513607   3.627  -0.229   1.343 -0.5755  0.7838  0.0342
    8MOL     C613608   3.667  -0.333   1.257  0.6953 -0.2201  0.4089
    8MOL     C713609   3.704  -0.453   1.305  0.2376  0.2336  0.0085
    8MOL     N313610   3.571  -0.111   1.285 -0.1258  0.3276 -0.2008
    8MOL     C813611   3.474  -0.116   1.187  0.0010 -0.3799  0.3283
    8MOL     C913612   3.437   0.022   1.162  0.5472 -0.2270  0.8371
    8MOL    C1013613   3.509   0.112   1.248 -0.3552 -0.1236 -0.7393
    8MOL    C1113614   3.601   0.020   1.330  0.6551 -0.0997 -0.1654
    8MOL     O113615   3.682   0.059   1.421  0.3964 -0.5004  0.0671
    8MOL    C1213616   3.330   0.081   1.083 -0.5692  0.4798 -0.3812
    8MOL    C1313617   3.319   0.218   1.079  0.4819 -0.0537  0.1638
    8MOL    C1413618   3.388   0.302   1.175 -0.1624 -0.0733  0.7783
    8MOL    C1513619   3.485   0.250   1.259  0.6310 -0.3193  0.2583
    8MOL    C1613620   3.108   0.359   1.090  0.5083  0.2074  0.5211
    8MOL    C1713621   3.083   0.321   1.219  0.7821  0.0216  0.2159
    8MOL    C1813622   2.993   0.397   1.299 -0.1080  0.1925 -0.3398
    8MOL    C1913623   3.033   0.473   1.036  0.2103 -0.0522  0.8141
    8MOL    C2013624   2.921   0.502   1.240 -0.6649 -0.4308  0.1480
    8MOL    C2113625   2.932   0.544   1.108 -0.1824  0.5422  0.1152
    8MOL    C2213626   3.213   0.282   0.993  0.3751  0.1776  0.0051
    8MOL    C2313627   3.291   0.371   0.892  0.1160  0.2507 -0.1980
    8MOL     F113628   3.404   0.316   0.841  0.1895 -0.3723  0.3563
    8MOL     F213629   3.332   0.487   0.947 -0.1134 -0.5406 -0.4032
    8MOL     F313630   3.211   0.412   0.787  0.5190  0.1893  0.2092
    8MOL    C2413631   3.124   0.182   0.907  0.2449  0.1669  0.3038
    8MOL     F413632   3.024   0.248   0.843 -0.1771 -0.6411  0.0384
    8MOL     F513633   3.065   0.090   0.986  0.2149 -0.3100 -0.1562
    8MOL     F613634   3.194   0.120   0.806 -0.4013 -0.6153  0.6843
    8MOL     O213635   3.423  -0.206   1.125  0.4966 -0.0659  0.0392
    8MOL    C2513636   2.952   0.388   1.443 -0.5021  0.0775 -0.1428
    8MOL     N413637   2.871   0.493   1.467 -0.0382 -0.0150 -0.1628
    8MOL    C2613638   2.843   0.566   1.351  0.6132 -0.3318  0.2026
    8MOL     O313639   2.787   0.675   1.348 -0.0056  0.4653 -0.3262
    8MOL    C2713640   3.702  -0.593   1.744  0.6495  0.2953 -0.0626
    8MOL    C2813641   3.574  -0.531   1.768  0.4240  0.0637 -0.0100
    8MOL    C2913642   3.804  -0.582   1.843  0.1257  0.0096 -0.5375
    8MOL    C3013643   3.550  -0.461   1.884  0.8883 -0.0974  0.1326
    8MOL    C3113644   3.772  -0.522   1.969 -0.6779 -0.6478  0.0196
    8MOL    C3213645   3.640  -0.465   1.991 -0.0792  0.3866  0.5492
    8MOL    C3313646   3.591  -0.423   2.111 -0.0599 -0.3726 -0.3328
    8MOL     N513647   3.471  -0.477   2.163 -0.0541  0.0985 -0.6487
    8MOL     N613648   3.650  -0.360   2.229 -0.3020  0.4024  0.4436
    8MOL    C3413649   3.460  -0.437   2.301 -0.5369 -0.1662  0.1019
    8MOL    C3513650   3.567  -0.375   2.341 -0.0120  0.2504  0.2609
    8MOL    C3613651   3.757  -0.259   2.229  0.0594  0.0142 -0.9090
    8MOL     H113652   3.732  -0.186   2.309  1.2076  0.8664  0.4515
    8MOL     H213653   3.764  -0.201   2.137 -0.3942 -2.7043  2.2333
    8MOL     H313654   3.853  -0.307   2.257 -2.9046 -1.2434 -0.7895
    8MOL    C3713655   3.391  -0.564   2.101  0.4011 -0.2676 -0.1426
    8MOL    C3813656   3.445  -0.678   2.038 -0.1245  0.0090  0.2325
    8MOL    C3913657   3.372  -0.750   1.941 -0.0387  0.3038 -0.2422
    8MOL    C4013658   3.261  -0.682   1.886  0.0072  0.4590  0.0623
    8MOL    C4113659   3.208  -0.569   1.950 -0.1464  0.2288 -0.5500
    8MOL    C4213660   3.263  -0.522   2.069  0.4193  0.8715 -0.4717
    8MOL    C4313661   3.608  -0.351   2.483 -0.3775  0.2125 -0.5088
    8MOL     F713662   3.730  -0.286   2.502 -0.6974 -0.2002 -0.0872
    8MOL     F813663   3.623  -0.465   2.553  0.4830  0.1453 -0.0342
    8MOL     F913664   3.515  -0.281   2.540 -0.3083 -0.4868 -0.3990
    8MOL    C4413665   3.819  -0.712   1.427  0.1015 -0.3196  0.2639
    8MOL    C4513666   3.840  -0.819   1.504  0.2814 -0.2310  0.5861
    8MOL    C4613667   3.907  -0.948   1.481  0.2103 -0.2519 -0.1797
    8MOL    F1013668   3.826  -1.054   1.485  0.0535  0.0696  0.3146
    8MOL    F1113669   3.965  -0.956   1.357 -0.0676  0.2965 -0.3189
    8MOL     H413670   3.839  -0.699   1.324  0.7325  2.7072  1.4331
    8MOL     H513671   3.718  -0.378   1.640  1.2648  0.8750  0.3791
    8MOL     H613672   3.629  -0.168   1.550  1.7486  2.3715  0.2681
    8MOL     H713673   3.753  -0.522   1.238  2.3517  1.6034  2.3620
    8MOL     H813674   3.672  -0.310   1.150 -2.4562 -0.5495  1.3190
    8MOL     H913675   3.276   0.012   1.016  0.4985 -1.2742 -3.6531
    8MOL    H1013676   3.368   0.409   1.175 -1.2657  1.5224  1.8517
    8MOL    H1113677   3.549   0.308   1.311 -1.2896  0.3292 -3.0707
    8MOL    H1213678   3.054   0.504   0.932  0.2761  0.0027  1.0822
    8MOL    H1313679   3.137   0.229   1.257 -0.9770 -2.4480 -2.0843
    8MOL    H1413680   2.887   0.636   1.074 -0.6624 -0.8720 -1.5132
    8MOL     O413681   2.992   0.311   1.529  0.0563  0.1518 -0.2324
    8MOL    H1513682   3.504  -0.517   1.686 -1.1248 -0.3182 -1.0578
    8MOL    H1613683   3.458  -0.403   1.885  1.1596 -0.4015  0.8489
    8MOL    H1713684   3.910  -0.619   1.827 -0.9511 -0.7964 -1.1246
    8MOL    H1813685   3.407  -0.844   1.903  0.7042  0.3795  2.0055
    8MOL    H1913686   3.546  -0.699   2.056 -0.0216  1.1314 -0.3227
    8MOL    H2013687   3.114  -0.523   1.910 -3.2392 -0.8903  0.3719
    8MOL    H2113688   3.225  -0.425   2.109  0.2557 -2.3665 -1.6434
    8MOL    H2213689   3.383  -0.474   2.369 -1.3480 -0.8086 -0.7981
    8MOL    H2313690   3.843  -0.522   2.050  1.1826  0.8118  2.9240
    8MOL    F1213691   4.002  -0.977   1.573  0.2210 -0.1774 -0.2844
    8MOL    C4713692   3.732  -0.896   1.713  0.4419 -0.2026 -0.3477
    8MOL    H2413693   3.807  -0.955   1.764 -0.8951 -1.1039 -1.6693
    8MOL    H2513694   3.689  -0.970   1.652  4.4539  0.5645  2.3792
    8MOL    H2613695   3.662  -0.851   1.784  0.2322 -1.7216 -1.0964
    8MOL     N113696   3.121   0.849   1.294  0.0557 -0.4354 -0.2734
    8MOL     N213697   2.984   1.030   1.285 -0.8133 -0.5273 -0.0559
    8MOL     C113698   3.021   0.921   1.370  0.6144 -0.1240  0.4062
    8MOL     C213699   2.920   1.143   1.334 -0.0222 -0.1979  0.1426
    8MOL     C313700   2.784   1.131   1.353 -0.0082 -0.5966  0.7965
    8MOL     C413701   2.722   1.224   1.432  0.2297  0.1479 -0.8303
    8MOL     C513702   2.796   1.327   1.496  0.0365  0.0432  0.8800
    8MOL     C613703   2.932   1.327   1.491 -0.7422  0.0510 -0.0729
    8MOL     C713704   2.999   1.237   1.403  0.4467 -0.0617 -0.3377
    8MOL     N313705   2.728   1.416   1.573 -0.6725 -0.3213 -0.0470
    8MOL     C813706   2.759   1.428   1.710 -0.1002 -0.9861 -0.2237
    8MOL     C913707   2.662   1.528   1.760  0.4707  0.8881  0.2455
    8MOL    C1013708   2.580   1.568   1.655  0.1926 -0.2040 -0.2157
    8MOL    C1113709   2.624   1.495   1.529 -0.4107  0.8821  0.5083
    8MOL     O113710   2.567   1.489   1.418  0.0081 -0.6670  0.1748
    8MOL    C1213711   2.634   1.561   1.894 -0.0232 -0.0512  0.4894
    8MOL    C1313712   2.518   1.637   1.923  0.3918  0.6570 -1.2160
    8MOL    C1413713   2.445   1.689   1.816  0.6751 -0.4696 -0.4148
    8MOL    C1513714   2.469   1.651   1.685 -0.6535 -0.3224  0.1499
    8MOL    C1613715   2.330   1.583   2.086 -0.0837  0.2264 -0.5513
    8MOL    C1713716   2.223   1.631   2.163  0.2185 -0.5549  0.7760
    8MOL    C1813717   2.140   1.534   2.222  0.2755  0.5602 -0.3241
    8MOL    C1913718   2.334   1.449   2.044  0.0337  0.9867  0.0163
    8MOL    C2013719   2.139   1.403   2.180 -0.1725  0.3023  0.2820
    8MOL    C2113720   2.241   1.353   2.089  0.1210  0.8499 -0.1724
    8MOL    C2213721   2.461   1.659   2.068  0.3848 -0.2911 -0.4736
    8MOL    C2313722   2.554   1.598   2.181 -0.6454  0.2004  0.2716
    8MOL     F113723   2.599   1.470   2.168 -0.3417  0.1690  0.3309
    8MOL     F213724   2.490   1.610   2.303 -0.0976 -0.1986  0.3459
    8MOL     F313725   2.665   1.667   2.196 -0.2011 -0.0096 -0.0850
    8MOL    C2413726   2.452   1.817   2.092 -0.3731  0.3971  0.9746
    8MOL     F413727   2.457   1.852   2.224 -0.7207  0.0192  0.2988
    8MOL     F513728   2.339   1.862   2.036 -0.2644  0.4372 -0.1522
    8MOL     F613729   2.550   1.882   2.028 -0.1715  0.3040  0.0965
    8MOL     O213730   2.842   1.364   1.768  0.0919 -0.1073 -0.5261
    8MOL    C2513731   2.031   1.551   2.320  0.3167 -0.0913 -0.2871
    8MOL     N413732   1.980   1.428   2.342 -0.0124  0.0382 -0.3761
    8MOL    C2613733   2.038   1.332   2.257 -0.2104 -0.1396 -0.3274
    8MOL     O313734   1.997   1.219   2.235 -0.0831 -0.5942 -0.0739
    8MOL    C2713735   2.967   0.909   1.500  0.4601 -0.0378 -0.1343
    8MOL    C2813736   2.828   0.898   1.510  0.0100  0.2398  0.0191
    8MOL    C2913737   3.040   0.942   1.610  0.0932  0.0457  0.3499
    8MOL    C3013738   2.760   0.912   1.631  0.1023 -0.1791  0.1602
    8MOL    C3113739   2.973   0.962   1.734 -0.0943  0.3762 -0.1406
    8MOL    C3213740   2.834   0.946   1.748 -0.3557 -0.3070 -0.4213
    8MOL    C3313741   2.769   0.922   1.864  0.7522  0.4985 -0.4395
    8MOL     N513742   2.742   0.792   1.914  0.2553 -0.5581 -0.0005
    8MOL     N613743   2.732   1.013   1.968 -0.6825 -0.2212 -0.1078
    8MOL    C3413744   2.669   0.811   2.033 -0.1546 -0.9345 -0.3939
    8MOL    C3513745   2.663   0.940   2.068  0.4377  0.0470 -0.2804
    8MOL    C3613746   2.751   1.158   1.954  0.2156 -0.2952 -0.1851
    8MOL     H113747   2.718   1.217   2.045  1.8551  0.2992 -4.7049
    8MOL     H213748   2.700   1.198   1.864  0.1454  0.8223 -2.6693
    8MOL     H313749   2.861   1.176   1.942  1.4738 -0.0224 -3.3406
    8MOL    C3713750   2.764   0.682   1.830 -0.2437  0.1810  0.4760
    8MOL    C3813751   2.661   0.641   1.743 -0.3281 -0.0069  0.0196
    8MOL    C3913752   2.692   0.567   1.629  0.0753 -0.0835  0.6148
    8MOL    C4013753   2.826   0.538   1.599  0.4300 -0.0630  0.5355
    8MOL    C4113754   2.933   0.562   1.691 -0.2554 -0.3958 -0.1858
    8MOL    C4213755   2.897   0.636   1.801 -1.1346 -0.4372  0.0686
    8MOL    C4313756   2.584   1.008   2.180 -0.0387 -0.4459 -0.2991
    8MOL     F713757   2.642   1.132   2.219 -0.3396 -0.1220  0.2564
    8MOL     F813758   2.569   0.933   2.297 -0.3239  0.1770 -0.5724
    8MOL     F913759   2.456   1.035   2.137 -0.0292  0.0245 -0.0949
    8MOL    C4413760   3.039   1.005   1.158  0.0769  0.4394 -0.4059
    8MOL    C4513761   3.122   0.902   1.163  0.3216  0.0347 -0.2620
    8MOL    C4613762   3.206   0.840   1.048  0.1171 -0.0339 -0.8257
    8MOL    F1013763   3.231   0.707   1.053  0.7851 -0.0862  0.2608
    8MOL    F1113764   3.151   0.872   0.924  0.0488  0.2044  0.1933
    8MOL     H413765   3.034   1.070   1.070  1.4435  1.2010 -1.5031
    8MOL     H513766   2.733   1.046   1.313  2.3369  1.8630  1.4978
    8MOL     H613767   2.617   1.207   1.460  1.6416 -0.2161 -1.3686
    8MOL     H713768   3.109   1.232   1.409  2.6049  0.9678  0.1297
    8MOL     H813769   2.984   1.398   1.544  0.5472 -1.7329 -2.1564
    8MOL     H913770   2.703   1.526   1.960  0.0216  1.1260 -0.5855
    8MOL    H1013771   2.364   1.762   1.838  0.7096  0.5534  0.9222
    8MOL    H1113772   2.405   1.680   1.600 -1.2964 -0.6561 -0.7230
    8MOL    H1213773   2.421   1.422   1.982  0.2071  1.1790 -1.2535
    8MOL    H1313774   2.203   1.736   2.177  1.6367  0.0457  0.4771
    8MOL    H1413775   2.249   1.247   2.067 -0.4032  0.4428 -1.2946
    8MOL     O413776   1.990   1.660   2.358 -0.1409 -0.1176 -0.5195
    8MOL    H1513777   2.775   0.879   1.416  0.9476 -1.6016 -2.1767
    8MOL    H1613778   2.655   0.885   1.631  0.7890 -0.9692  0.0017
    8MOL    H1713779   3.141   0.968   1.600  2.5059 -0.2316 -2.1088
    8MOL    H1813780   2.626   0.566   1.540 -0.2177  1.9775 -2.6408
    8MOL    H1913781   2.564   0.682   1.757 -1.2719  3.1886  1.5408
    8MOL    H2013782   3.030   0.528   1.671  2.2295  0.1244  2.2174
    8MOL    H2113783   2.985   0.679   1.862  1.4455  0.2522  1.4950
    8MOL    H2213784   2.614   0.728   2.073  1.5988 -1.0251 -2.0236
    8MOL    H2313785   3.023   0.984   1.826 -0.7791  0.9110 -0.3072
    8MOL    F1213786   3.331   0.901   1.044 -0.0965  0.3120 -0.1043
    8MOL    C4713787   3.197   0.737   1.341 -0.7420  0.2489  0.4551
    8MOL    H2413788   3.284   0.764   1.396 -0.4710 -1.6323 -1.7298
    8MOL    H2513789   3.242   0.677   1.254  0.9279  1.0519 -0.9077
    8MOL    H2613790   3.138   0.678   1.417 -2.5818  0.7689  2.4882
    8MOL     N113791   1.774   1.023   2.038 -0.6215  0.0972  0.0607
    8MOL     N213792   1.973   0.908   2.036 -0.0233  0.1236  0.0450
    8MOL     C113793   1.856   0.927   2.109 -0.1598  0.4807  0.3255
    8MOL     C213794   2.067   0.819   2.071 -1.0453  0.2812  0.4896
    8MOL     C313795   2.176   0.847   2.161  0.7400  0.7658 -0.4548
    8MOL     C413796   2.277   0.751   2.183  0.3411  0.1100 -0.1628
    8MOL     C513797   2.274   0.627   2.118  0.0898 -0.1020  0.1194
    8MOL     C613798   2.168   0.602   2.030 -0.0969  0.2881 -0.1061
    8MOL     C713799   2.069   0.697   2.004 -0.0424  0.3199  0.2650
    8MOL     N313800   2.388   0.541   2.115  0.8620 -0.1013  0.0269
    8MOL     C813801   2.456   0.504   2.001  1.0908  0.1392  0.8757
    8MOL     C913802   2.545   0.392   2.043 -0.1426  0.5305  1.1686
    8MOL    C1013803   2.555   0.390   2.179  0.2123  0.3215 -0.3614
    8MOL    C1113804   2.456   0.495   2.227 -0.5617  0.2759  0.5310
    8MOL     O113805   2.444   0.523   2.340  0.3817 -0.3649 -0.0181
    8MOL    C1213806   2.620   0.300   1.966  1.1135  1.1222  0.1853
    8MOL    C1313807   2.715   0.216   2.033  0.8396  0.4652  0.1192
    8MOL    C1413808   2.732   0.227   2.173 -0.1963  0.3548  0.2849
    8MOL    C1513809   2.648   0.308   2.252 -0.4751 -0.1387  0.4359
    8MOL    C1613810   2.950   0.117   1.990  0.0086  0.4024  0.2128
    8MOL    C1713811   3.021   0.020   2.072  0.6859 -0.3153  0.3020
    8MOL    C1813812   3.141   0.066   2.130  0.7833  0.4374 -0.3515
    8MOL    C1913813   3.012   0.241   1.964  0.3310 -0.7454  0.6864
    8MOL    C2013814   3.199   0.187   2.103  0.1425  0.5315  0.0896
    8MOL    C2113815   3.138   0.273   2.010  0.0474 -0.2168  0.1122
    8MOL    C2213816   2.794   0.109   1.949  0.4400  0.7383 -0.2356
    8MOL    C2313817   2.730  -0.033   1.993  0.1567 -0.4274 -0.3143
    8MOL     F113818   2.601  -0.033   1.957  0.0246 -0.3938  0.3843
    8MOL     F213819   2.732  -0.061   2.123 -0.3533 -0.3420  0.3406
    8MOL     F313820   2.794  -0.133   1.926 -0.4479 -0.6063  0.4254
    8MOL    C2413821   2.789   0.114   1.792  0.8532  0.0298 -0.0105
    8MOL     F413822   2.896   0.036   1.744 -0.0627 -0.3461  0.4039
    8MOL     F513823   2.813   0.245   1.743  0.7370  0.1366  0.2050
    8MOL     F613824   2.669   0.073   1.743  0.2733  0.5330  0.1218
    8MOL     O213825   2.434   0.551   1.888 -0.5346 -0.2447 -0.4973
    8MOL    C2513826   3.196   0.020   2.258  0.1127 -0.3935 -0.5296
    8MOL     N413827   3.298   0.105   2.291 -0.2508 -0.2296  0.0870
    8MOL    C2613828   3.305   0.212   2.208 -0.5051 -0.7457  0.9103
    8MOL     O313829   3.375   0.310   2.214 -0.6442 -0.0981  0.1434
    8MOL    C2713830   1.835   0.916   2.250  0.0980  0.4352  0.8700
    8MOL    C2813831   1.935   0.970   2.328 -0.7626  0.4888 -0.0707
    8MOL    C2913832   1.718   0.856   2.310 -0.3755  0.3207  0.5271
    8MOL    C3013833   1.919   0.972   2.465 -0.0927  0.2335  0.1536
    8MOL    C3113834   1.697   0.871   2.447 -0.1564 -0.4483  0.3729
    8MOL    C3213835   1.796   0.928   2.529  0.1022  0.1968  0.1520
    8MOL    C3313836   1.766   0.962   2.659  0.0980  0.7339 -0.3377
    8MOL     N513837   1.782   1.092   2.711  0.1150 -0.1412 -0.1557
    8MOL     N613838   1.722   0.883   2.764  0.7605 -0.9609 -0.0558
    8MOL    C3413839   1.775   1.080   2.855 -0.0314  0.1103  0.3488
    8MOL    C3513840   1.748   0.951   2.884 -0.3182 -0.0925 -0.3454
    8MOL    C3613841   1.715   0.743   2.758 -0.1515  0.3452  0.2348
    8MOL     H113842   1.792   0.696   2.824 -1.7750 -1.2785 -0.6439
    8MOL     H213843   1.727   0.706   2.654 -0.9847 -2.0275  2.8513
    8MOL     H313844   1.610   0.719   2.779  1.9050 -0.3887 -0.4495
    8MOL    C3713845   1.815   1.201   2.636  0.1809 -0.4723  0.0227
    8MOL    C3813846   1.733   1.229   2.521  0.2499 -0.2398  0.0277
    8MOL    C3913847   1.779   1.318   2.430  0.1074  0.6980  0.1169
    8MOL    C4013848   1.903   1.384   2.451 -0.3385 -0.1064  0.6640
    8MOL    C4113849   1.968   1.379   2.576 -0.1723  0.0678 -0.4497
    8MOL    C4213850   1.917   1.290   2.673  0.0911  0.0935  0.1049
    8MOL    C4313851   1.738   0.886   3.015  0.0058  0.1516 -0.8680
    8MOL     F713852   1.823   0.784   3.033  0.3338  0.3720 -0.0137
    8MOL     F813853   1.610   0.847   3.037 -0.4303  0.1998  0.2802
    8MOL     F913854   1.748   0.979   3.111  0.1750  0.2980 -0.0418
    8MOL    C4413855   1.963   0.998   1.930  0.2920 -0.3941  0.4671
    8MOL    C4513856   1.844   1.057   1.929  0.5659 -0.4551  0.4521
    8MOL    C4613857   1.798   1.166   1.838  0.2750  0.0134  0.2692
    8MOL    F1013858   1.805   1.282   1.904  0.0376  0.1774 -0.0873
    8MOL    F1113859   1.867   1.178   1.726 -0.3824 -0.0314 -0.2233
    8MOL     H413860   2.035   1.016   1.852 -0.1860 -0.5481 -0.0077
    8MOL     H513861   2.182   0.941   2.213  1.4512  1.9196 -1.0106
    8MOL     H613862   2.359   0.776   2.245  0.1664 -0.1146  0.6342
    8MOL     H713863   1.981   0.677   1.935 -3.8860 -1.5290 -1.3066
    8MOL     H813864   2.160   0.507   1.977  1.0435  0.9522  0.5029
    8MOL     H913865   2.603   0.284   1.862  2.5299  1.3885  0.2344
    8MOL    H1013866   2.796   0.152   2.216  0.9209  1.9110  0.6433
    8MOL    H1113867   2.649   0.308   2.361 -0.8543  1.7612  0.0911
    8MOL    H1213868   2.960   0.314   1.899  3.2663 -2.5828  1.0962
    8MOL    H1313869   2.981  -0.075   2.110  0.4836 -1.2084  1.4370
    8MOL    H1413870   3.175   0.372   1.993 -0.2586  0.5336  0.6313
    8MOL     O413871   3.152  -0.081   2.317 -0.0060  0.3969  0.2522
    8MOL    H1513872   2.025   1.008   2.279 -1.6967 -2.3071  2.4700
    8MOL    H1613873   2.008   1.006   2.522  1.3734  1.6487  3.6098
    8MOL    H1713874   1.646   0.813   2.242 -0.9415 -0.0784 -0.6952
    8MOL    H1813875   1.727   1.323   2.333 -0.8466  0.3503 -1.9879
    8MOL    H1913876   1.638   1.175   2.504 -2.7840 -1.7379  1.1001
    8MOL    H2013877   2.054   1.451   2.598  1.1706  2.6810 -1.5044
    8MOL    H2113878   1.968   1.281   2.768  0.2063  1.5896 -0.6305
    8MOL    H2213879   1.795   1.163   2.916 -1.1048 -1.7934  1.0269
    8MOL    H2313880   1.606   0.843   2.488 -2.0480  0.1221  0.1981
    8MOL    F1213881   1.664   1.151   1.800 -0.1104  0.0196 -0.6610
    8MOL    C4713882   1.697   1.121   2.111  0.9524  0.1002 -0.2801
    8MOL    H2413883   1.613   1.145   2.050  0.5733  0.8860  1.8006
    8MOL    H2513884   1.749   1.215   2.136  1.7466 -0.7217  1.3964
    8MOL    H2613885   1.665   1.077   2.209  0.7978  2.0937  1.9204
    8MOL     N113886   3.740   0.296   2.098  0.9575 -0.1608  0.4517
    8MOL     N213887   3.720   0.522   2.093  0.3602 -0.1971  0.5218
    8MOL     C113888   3.718   0.407   2.178 -0.5766  0.4760 -0.0814
    8MOL     C213889   3.684   0.656   2.127  0.7297 -0.2184  0.5020
    8MOL     C313890   3.713   0.704   2.259 -0.4383 -0.7655  0.1556
    8MOL     C413891   3.684   0.838   2.300  0.2710  0.3618 -0.5612
    8MOL     C513892   3.600   0.908   2.214 -0.1116  0.2902 -0.0284
    8MOL     C613893   3.562   0.867   2.082  1.0081  0.3270 -0.0449
    8MOL     C713894   3.604   0.736   2.040  0.3030 -0.0380 -0.5283
    8MOL     N313895   3.539   1.028   2.262  0.5997 -0.2583  0.4581
    8MOL     C813896   3.570   1.155   2.212  0.8880  0.5568 -0.5769
    8MOL     C913897   3.486   1.250   2.296  0.0874 -0.2342 -0.5514
    8MOL    C1013898   3.398   1.178   2.380  0.4442  0.4731  0.2900
    8MOL    C1113899   3.430   1.033   2.352  0.0374  0.5649  0.6581
    8MOL     O113900   3.376   0.935   2.398  0.0029  0.5009 -0.1366
    8MOL    C1213901   3.478   1.390   2.291  0.2160  0.2746  0.1766
    8MOL    C1313902   3.387   1.461   2.370  0.8941 -0.1000 -0.2598
    8MOL    C1413903   3.293   1.385   2.445 -0.4719 -0.2233  0.4714
    8MOL    C1513904   3.306   1.245   2.457  0.3425  0.7199 -0.2861
    8MOL    C1613905   3.253   1.666   2.315  0.3260 -0.5125 -0.2032
    8MOL    C1713906   3.223   1.803   2.330 -0.4439 -0.1851  0.0402
    8MOL    C1813907   3.105   1.854   2.273  0.0278  0.0648  0.4448
    8MOL    C1913908   3.174   1.591   2.227 -0.0958 -0.1610  0.0727
    8MOL    C2013909   3.021   1.771   2.198 -0.2624 -0.3612  0.4078
    8MOL    C2113910   3.050   1.634   2.176  0.0704  0.2874 -0.4829
    8MOL    C2213911   3.385   1.616   2.373  0.0302 -0.4387  0.9835
    8MOL    C2313912   3.392   1.657   2.527  0.4256  0.3068 -0.1238
    8MOL     F113913   3.265   1.655   2.575 -0.1763 -0.8183 -0.0909
    8MOL     F213914   3.431   1.779   2.553 -0.6412  0.0147  0.2455
    8MOL     F313915   3.472   1.584   2.604  0.7521 -0.7061 -0.1959
    8MOL    C2413916   3.502   1.685   2.295 -0.0205 -0.7883 -0.2232
    8MOL     F413917   3.618   1.652   2.364  0.1034 -0.1005 -0.8028
    8MOL     F513918   3.494   1.819   2.296 -0.3873 -0.4428  0.4663
    8MOL     F613919   3.506   1.655   2.167 -0.1524 -0.2823 -0.2487
    8MOL     O213920   3.637   1.183   2.114 -0.0470  0.5560  0.4872
    8MOL    C2513921   3.054   1.993   2.278  0.4837 -0.0574  0.3529
    8MOL     N413922   2.939   1.992   2.199  0.1174  0.1077 -0.2025
    8MOL    C2613923   2.908   1.865   2.148 -0.2110 -0.5838  0.6734
    8MOL     O313924   2.814   1.848   2.067 -0.2848 -0.1302 -0.1087
    8MOL    C2713925   3.702   0.395   2.313  0.3666  0.4790  0.4549
    8MOL    C2813926   3.582   0.441   2.368  0.3116  0.0769  0.6926
    8MOL    C2913927   3.805   0.352   2.394 -0.2867 -0.5820  0.4497
    8MOL    C3013928   3.562   0.438   2.505  0.0275 -0.6060 -0.2283
    8MOL    C3113929   3.789   0.353   2.535  0.4036 -0.0131 -0.5865
    8MOL    C3213930   3.667   0.400   2.590 -0.3310 -0.4251 -0.1001
    8MOL    C3313931   3.633   0.372   2.720 -0.5154  0.1440  0.9785
    8MOL     N513932   3.540   0.278   2.762 -0.9800  0.0716  0.3077
    8MOL     N613933   3.719   0.391   2.829 -0.0361  0.1548  0.5800
    8MOL    C3413934   3.557   0.257   2.901 -0.2631  0.1615 -0.0608
    8MOL    C3513935   3.669   0.323   2.940  0.7783 -0.6875 -0.3812
    8MOL    C3613936   3.811   0.503   2.838  0.2232  0.0013 -0.4971
    8MOL     H113937   3.894   0.479   2.912  0.7941  0.1489 -0.1759
    8MOL     H213938   3.762   0.594   2.876 -0.0388  0.2602 -1.7662
    8MOL     H313939   3.849   0.534   2.734  2.0969 -2.5424 -1.0252
    8MOL    C3713940   3.472   0.204   2.672 -0.5140  0.2790 -0.0471
    8MOL    C3813941   3.545   0.115   2.586  0.2763  0.3072  0.1730
    8MOL    C3913942   3.486   0.082   2.460  0.0267  0.2096  0.4159
    8MOL    C4013943   3.360   0.124   2.424  0.0095  0.1656  0.6821
    8MOL    C4113944   3.288   0.199   2.516 -0.2501 -0.2510  0.3056
    8MOL    C4213945   3.340   0.236   2.645 -0.3725 -0.2116  0.9142
    8MOL    C4313946   3.737   0.312   3.074 -0.2970 -0.6701  0.2801
    8MOL     F713947   3.878   0.331   3.065 -0.4397  0.4271  0.0898
    8MOL     F813948   3.719   0.191   3.131  0.2464  0.0350  0.2697
    8MOL     F913949   3.688   0.401   3.164 -0.5899 -0.3472  0.2238
    8MOL    C4413950   3.725   0.472   1.959 -0.4304 -0.2049  0.5396
    8MOL    C4513951   3.739   0.338   1.960 -0.2802 -0.0574  0.5029
    8MOL    C4613952   3.733   0.240   1.846 -0.6997 -0.0583 -0.7572
    8MOL    F1013953   3.610   0.179   1.838 -0.0214 -0.0695  0.3992
    8MOL    F1113954   3.772   0.293   1.726 -0.6298  0.3695 -0.2136
    8MOL     H413955   3.707   0.542   1.874 -1.5754  2.9870  1.7407
    8MOL     H513956   3.761   0.630   2.327  1.7703  0.9721 -0.4773
    8MOL     H613957   3.714   0.878   2.405 -1.9966  1.6844 -0.5729
    8MOL     H713958   3.586   0.702   1.936 -0.3364 -1.4028  2.1019
    8MOL     H813959   3.504   0.939   2.023 -0.1275  0.4462  2.0446
    8MOL     H913960   3.558   1.441   2.239 -3.9221  2.0345  0.6372
    8MOL    H1013961   3.212   1.428   2.496 -2.3824 -1.4116 -2.4781
    8MOL    H1113962   3.228   1.195   2.526 -3.4822 -0.8475 -2.1757
    8MOL    H1213963   3.204   1.485   2.204  0.5691 -1.1077 -1.6037
    8MOL    H1313964   3.283   1.871   2.387 -0.1919  0.3783  0.2737
    8MOL    H1413965   2.995   1.568   2.119  1.0578  0.3403 -0.3124
    8MOL     O413966   3.108   2.081   2.343  0.5184 -0.1254 -0.3865
    8MOL    H1513967   3.504   0.466   2.292 -0.2380 -0.1548 -0.5211
    8MOL    H1613968   3.463   0.469   2.543  3.2680 -1.2671  0.0286
    8MOL    H1713969   3.903   0.315   2.359 -0.5767  2.7870  0.7240
    8MOL    H1813970   3.535  -0.002   2.407 -1.0178  0.3803  1.3195
    8MOL    H1913971   3.650   0.092   2.597 -0.7686 -0.6353 -0.6396
    8MOL    H2013972   3.197   0.243   2.473  2.0374  0.9987 -0.2745
    8MOL    H2113973   3.291   0.310   2.710 -2.8892  0.9113  1.3972
    8MOL    H2213974   3.495   0.183   2.956  1.3060  0.9426  0.5967
    8MOL    H2313975   3.864   0.307   2.594 -1.5811 -1.5144 -0.6604
    8MOL    F1213976   3.814   0.134   1.856  0.0662 -0.1220  0.0074
    8MOL    C4713977   3.683   0.163   2.133  0.1461 -0.5049 -0.9040
    8MOL    H2413978   3.748   0.088   2.088  1.3286 -0.0026  0.3672
    8MOL    H2513979   3.580   0.153   2.089 -1.2508 -3.2713 -1.5410
    8MOL    H2613980   3.678   0.151   2.241  0.0613  3.2741  0.1127
    8MOL     N113981   2.326   1.927   2.535  0.1325  0.1968  0.0710
    8MOL     N213982   2.496   1.996   2.670 -0.5824 -0.0210 -0.0965
    8MOL     C113983   2.403   2.040   2.573 -0.3352  0.1640 -0.5284
    8MOL     C213984   2.614   2.067   2.692  0.3924  0.8845  0.2702
    8MOL     C313985   2.725   2.018   2.625  0.0518  0.0081  0.0413
    8MOL     C413986   2.836   2.105   2.602  0.6942 -0.4751 -0.2656
    8MOL     C513987   2.835   2.233   2.660 -0.5637 -0.5210  0.0509
    8MOL     C613988   2.733   2.274   2.743 -0.1466 -0.1797  0.1354
    8MOL     C713989   2.615   2.195   2.754 -0.2072 -0.4204  0.0425
    8MOL     N313990   2.942   2.317   2.609  0.1733 -0.1792 -0.2800
    8MOL     C813991   2.921   2.427   2.530 -0.4955 -0.5665 -0.7062
    8MOL     C913992   3.049   2.468   2.480 -0.0754  0.3246 -0.8266
    8MOL    C1013993   3.143   2.391   2.537 -0.8528  0.3473 -0.6377
    8MOL    C1113994   3.077   2.300   2.638 -0.4780 -0.1453  0.6614
    8MOL     O113995   3.130   2.231   2.722 -0.0829  1.0134 -0.3247
    8MOL    C1213996   3.078   2.553   2.380  0.0841  0.4077  0.0885
    8MOL    C1313997   3.202   2.545   2.321  1.2077 -0.1445  0.4031
    8MOL    C1413998   3.307   2.465   2.376  0.1271  0.4531 -0.0626
    8MOL    C1513999   3.276   2.387   2.493  0.4204 -0.1564  0.1564
    8MOL    C1614000   3.309   2.520   2.098  0.3784 -0.0226  0.5088
    8MOL    C1714001   3.263   2.392   2.072  0.4658 -0.2580 -0.2749
    8MOL    C1814002   3.344   2.296   2.020 -0.9495 -0.3324 -0.1433
    8MOL    C1914003   3.437   2.555   2.052  0.1379 -0.5728  0.1108
    8MOL    C2014004   3.473   2.328   1.989 -0.6394  0.1795 -0.0863
    8MOL    C2114005   3.518   2.454   1.992  0.0433  0.5436 -0.5743
    8MOL    C2214006   3.226   2.616   2.185 -0.0516 -0.3182 -0.2397
    8MOL    C2314007   3.093   2.652   2.106  0.2339 -0.4742 -0.0642
    8MOL     F114008   3.127   2.692   1.982 -0.2201 -0.4662 -0.1643
    8MOL     F214009   3.027   2.763   2.156 -0.5842 -0.5045  0.0827
    8MOL     F314010   3.001   2.552   2.083  0.1566 -0.1173  0.2504
    8MOL    C2414011   3.307   2.755   2.215 -0.2463  0.2614 -0.0397
    8MOL     F414012   3.224   2.816   2.304 -0.0992  0.1408  0.4785
    8MOL     F514013   3.320   2.814   2.100  0.0096  0.1703  0.2458
    8MOL     F614014   3.422   2.728   2.284  0.4562  0.0501 -0.3677
    8MOL     O214015   2.813   2.477   2.511 -0.2249  0.3596  0.1975
    8MOL    C2514016   3.321   2.153   1.991  0.2042  0.3363 -0.7347
    8MOL     N414017   3.448   2.107   1.952  0.1756  0.1928 -0.7253
    8MOL    C2614018   3.538   2.206   1.937 -0.0422  0.4017 -0.2713
    8MOL     O314019   3.640   2.198   1.870 -0.2347 -0.5416  0.4565
    8MOL    C2714020   2.415   2.154   2.497 -0.3998  0.1245  0.3464
    8MOL    C2814021   2.434   2.139   2.359  0.3047 -0.6933 -0.1663
    8MOL    C2914022   2.397   2.282   2.554  0.6839  0.1534  0.1457
    8MOL    C3014023   2.440   2.248   2.275 -0.6422 -0.0125  0.5003
    8MOL    C3114024   2.410   2.397   2.471 -0.4030 -0.1175 -0.2638
    8MOL    C3214025   2.433   2.383   2.324  0.0702  0.1350  0.2936
    8MOL    C3314026   2.503   2.478   2.250 -0.1608  0.5165  0.0743
    8MOL     N514027   2.640   2.472   2.218  0.3698 -0.4844 -0.2351
    8MOL     N614028   2.472   2.617   2.237 -0.2745  0.5692  0.3528
    8MOL    C3414029   2.692   2.605   2.224 -0.0614  0.3739 -0.2140
    8MOL    C3514030   2.590   2.689   2.224 -0.4826 -0.8135 -0.6448
    8MOL    C3614031   2.341   2.681   2.224 -0.0759  0.4675 -0.7420
    8MOL     H114032   2.341   2.773   2.161 -0.2099  1.1275  0.0946
    8MOL     H214033   2.303   2.712   2.320  0.5949 -0.7357  1.1219
    8MOL     H314034   2.270   2.607   2.183 -2.2399  1.8553  0.4718
    8MOL    C3714035   2.719   2.354   2.205  0.0705  0.1201  0.6806
    8MOL    C3814036   2.713   2.266   2.319 -0.8966 -0.8729  0.4527
    8MOL    C3914037   2.775   2.141   2.306  0.9717 -0.5255  0.3136
    8MOL    C4014038   2.854   2.104   2.192  0.4853  0.1616 -0.6485
    8MOL    C4114039   2.868   2.199   2.086  0.8329  0.1608 -0.4882
    8MOL    C4214040   2.792   2.321   2.089  0.1244  0.1196 -0.2431
    8MOL    C4314041   2.594   2.843   2.230  0.2539 -0.2302  0.0385
    8MOL     F714042   2.504   2.917   2.155 -0.6613  0.0433  0.2292
    8MOL     F814043   2.718   2.882   2.203  0.3064 -0.1595 -0.0682
    8MOL     F914044   2.567   2.876   2.353 -0.3471 -0.2175 -0.3175
    8MOL    C4414045   2.478   1.858   2.683 -0.2704  0.6638  0.0413
    8MOL    C4514046   2.374   1.820   2.608  0.4844  0.1120 -0.3043
    8MOL    C4614047   2.312   1.678   2.611 -0.5653 -0.4999 -0.0448
    8MOL    F1014048   2.277   1.629   2.494  0.5260  0.5560 -0.9917
    8MOL    F1114049   2.387   1.585   2.674 -0.2153 -0.0700 -0.2380
    8MOL     H414050   2.543   1.808   2.750 -4.6369  0.9175 -1.3605
    8MOL     H514051   2.725   1.916   2.579 -2.3838 -1.8015  1.2687
    8MOL     H614052   2.912   2.061   2.539 -0.6541  0.8853  1.1661
    8MOL     H714053   2.534   2.234   2.816 -0.6531  1.9921  2.4273
    8MOL     H814054   2.736   2.366   2.795  0.1798 -1.6697 -2.3926
    8MOL     H914055   2.997   2.617   2.342 -0.5140 -1.1090 -1.8278
    8MOL    H1014056   3.414   2.457   2.328  1.4578  1.1546 -2.9092
    8MOL    H1114057   3.351   2.323   2.530  2.9129  0.7182  2.2401
    8MOL    H1214058   3.486   2.653   2.065 -0.0319  1.1209 -0.3861
    8MOL    H1314059   3.158   2.370   2.090 -0.8944  2.5990  0.9071
    8MOL    H1414060   3.618   2.477   1.955  1.1592 -2.9281  0.9321
    8MOL     O414061   3.216   2.096   1.997 -0.0195 -0.5233 -0.0018
    8MOL    H1514062   2.448   2.032   2.340  0.5013  0.3620 -0.7043
    8MOL    H1614063   2.460   2.228   2.169  1.3930 -1.0066 -0.8417
    8MOL    H1714064   2.368   2.298   2.663  0.0307  0.3037 -0.7680
    8MOL    H1814065   2.757   2.057   2.376 -0.4452 -1.6464  1.2052
    8MOL    H1914066   2.660   2.291   2.410  1.4188 -2.5865 -1.7348
    8MOL    H2014067   2.938   2.184   2.006 -0.0102 -0.1831  0.5175
    8MOL    H2114068   2.791   2.377   1.991 -0.6310 -1.2252  0.4339
    8MOL    H2214069   2.800   2.620   2.222 -1.6089  2.2258 -3.5903
    8MOL    H2314070   2.412   2.490   2.518 -1.2174 -2.8092 -2.2124
    8MOL    F1214071   2.194   1.691   2.678  0.0275 -0.0914  0.0552
    8MOL    C4714072   2.232   1.912   2.420  0.9239  0.3832 -0.3865
    8MOL    H2414073   2.136   1.926   2.470  1.4162  4.0337  1.7171
    8MOL    H2514074   2.245   1.813   2.380  0.8848 -0.1055  0.3053
    8MOL    H2614075   2.246   2.001   2.361 -1.3840  0.2113 -0.1861
    8MOL     N114076   3.572   2.279   1.509 -0.1177  0.0245  0.0513
    8MOL     N214077   3.797   2.270   1.463 -0.3413 -0.5806  0.3236
    8MOL     C114078   3.684   2.198   1.522 -0.4541  0.1048  0.0700
    8MOL     C214079   3.932   2.233   1.475  0.9863  0.3295  0.5406
    8MOL     C314080   3.964   2.097   1.466  0.1198 -0.1361 -0.3046
    8MOL     C414081   4.078   2.049   1.528  0.7769  1.0574 -0.4328
    8MOL     C514082   4.148   2.131   1.616  0.7645 -0.3095 -0.6353
    8MOL     C614083   4.123   2.270   1.612 -0.2070 -0.2569  0.0683
    8MOL     C714084   4.017   2.325   1.544  0.0434  0.4094  0.1252
    8MOL     N314085   4.205   2.061   1.729 -0.1202  0.1926 -0.2539
    8MOL     C814086   4.337   2.049   1.770  0.0040  0.1791 -0.1363
    8MOL     C914087   4.331   1.985   1.905 -0.4956 -0.0198 -0.1988
    8MOL    C1014088   4.197   1.964   1.935 -0.3198  0.6942 -0.2861
    8MOL    C1114089   4.113   2.026   1.828  0.3199  0.9739  0.4802
    8MOL     O114090   3.996   2.064   1.838  0.0029 -0.8832  0.0282
    8MOL    C1214091   4.435   1.949   1.994 -0.6593  0.0305  0.2308
    8MOL    C1314092   4.399   1.901   2.124  0.2425 -0.8207 -0.0372
    8MOL    C1414093   4.259   1.890   2.151 -0.2424  0.1915  0.1163
    8MOL    C1514094   4.158   1.911   2.058 -0.1146 -0.1033  0.0899
    8MOL    C1614095   4.414   1.891   2.367  0.3401 -0.1737  0.2381
    8MOL    C1714096   4.369   1.776   2.436  0.0031 -0.1059  0.0978
    8MOL    C1814097   4.254   1.783   2.522 -0.0139  0.0177  0.0966
    8MOL    C1914098   4.351   2.016   2.397 -0.1465  0.1885  0.3542
    8MOL    C2014099   4.199   1.907   2.554 -0.1864 -0.5504  0.5020
    8MOL    C2114100   4.251   2.024   2.492  0.1157 -0.4843 -0.4429
    8MOL    C2214101   4.504   1.870   2.235  0.7153  0.0001 -0.1125
    8MOL    C2314102   4.566   1.726   2.225 -0.6013  0.1791 -0.9274
    8MOL     F114103   4.635   1.721   2.102 -0.4999 -0.0595 -0.0711
    8MOL     F214104   4.473   1.633   2.215 -0.0554 -0.5750  0.6863
    8MOL     F314105   4.639   1.695   2.331  0.3056  0.2984  0.2547
    8MOL    C2414106   4.623   1.975   2.242  0.1754 -0.4658 -0.0996
    8MOL     F414107   4.693   1.946   2.360  0.4093 -0.1376  0.6241
    8MOL     F514108   4.578   2.102   2.238  0.3026  0.2308  0.2056
    8MOL     F614109   4.724   1.960   2.153  0.5119  0.5536  0.4778
    8MOL     O214110   4.436   2.082   1.697 -0.9638 -0.0449 -0.3780
    8MOL    C2514111   4.180   1.675   2.590  0.0639  0.1401  0.8694
    8MOL     N414112   4.080   1.746   2.657  0.0585  0.3950  0.0135
    8MOL    C2614113   4.086   1.882   2.648  0.2966  0.0614 -0.1280
    8MOL     O314114   4.017   1.955   2.716  0.3788  0.2276 -0.4387
    8MOL    C2714115   3.688   2.062   1.566 -0.0195  0.0571  0.3234
    8MOL    C2814116   3.759   2.024   1.677 -0.6972  0.1937 -0.3015
    8MOL    C2914117   3.644   1.961   1.478 -0.3704 -1.5760  0.3769
    8MOL    C3014118   3.787   1.898   1.709  0.0171 -0.3097 -0.7983
    8MOL    C3114119   3.674   1.827   1.504  0.1531 -0.3064  0.2690
    8MOL    C3214120   3.744   1.795   1.622  0.3706  0.4641  0.4657
    8MOL    C3314121   3.747   1.665   1.673 -0.8123  0.1266  0.1802
    8MOL     N514122   3.673   1.626   1.790 -0.3614  0.0799 -0.5903
    8MOL     N614123   3.790   1.544   1.607 -0.0920 -0.0085  0.1405
    8MOL    C3414124   3.665   1.488   1.790 -0.1077 -0.0601 -0.1970
    8MOL    C3514125   3.732   1.438   1.682 -0.3546 -0.0985 -0.4489
    8MOL    C3614126   3.800   1.542   1.458 -0.1646  0.0812  0.5463
    8MOL     H114127   3.691   1.540   1.428 -1.0356 -1.5690  0.7069
    8MOL     H214128   3.850   1.452   1.425  0.4162  1.9460 -0.1404
    8MOL     H314129   3.856   1.629   1.418  1.9086  0.4484  2.4294
    8MOL    C3714130   3.589   1.720   1.851 -0.2758 -0.4694  0.1798
    8MOL    C3814131   3.497   1.790   1.768  0.0292 -0.3713 -0.5162
    8MOL    C3914132   3.435   1.909   1.803 -0.2633  0.2158 -0.1319
    8MOL    C4014133   3.479   1.974   1.919  0.0582  0.2004  0.5024
    8MOL    C4114134   3.578   1.914   1.999 -0.0168  0.1581 -0.4087
    8MOL    C4214135   3.632   1.790   1.967 -0.1649 -0.0607 -0.4687
    8MOL    C4314136   3.733   1.292   1.642  0.3551 -0.1157  0.1419
    8MOL     F714137   3.826   1.221   1.710  0.2372  0.1373 -0.4438
    8MOL     F814138   3.764   1.261   1.518 -0.1664  0.0617 -0.3651
    8MOL     F914139   3.610   1.241   1.651 -0.0850  0.4134  0.0650
    8MOL    C4414140   3.745   2.388   1.431 -0.2974  0.0356  0.5857
    8MOL    C4514141   3.614   2.395   1.452 -0.7914 -0.8362 -0.0113
    8MOL    C4614142   3.535   2.519   1.454  0.1203 -0.8482 -0.3189
    8MOL    F1014143   3.617   2.626   1.445 -0.6410 -0.3316 -0.2316
    8MOL    F1114144   3.451   2.523   1.352 -0.0675  0.3107 -0.2704
    8MOL     H414145   3.808   2.470   1.414 -0.2997 -1.3569 -3.3065
    8MOL     H514146   3.888   2.031   1.413 -1.4588  2.6912  0.7821
    8MOL     H614147   4.113   1.944   1.521  0.0776 -0.1764 -0.1835
    8MOL     H714148   3.993   2.433   1.551 -0.2490  1.1373 -1.4978
    8MOL     H814149   4.184   2.328   1.679  1.1093  0.4322 -0.1789
    8MOL     H914150   4.538   1.962   1.967 -0.6541  2.0908 -1.6802
    8MOL    H1014151   4.216   1.846   2.243  0.1008 -0.3485  3.3979
    8MOL    H1114152   4.055   1.904   2.084  1.5120 -1.2210  0.7254
    8MOL    H1214153   4.371   2.105   2.345  0.1038 -0.3928 -0.1835
    8MOL    H1314154   4.399   1.674   2.414 -0.9032 -0.0277  2.5913
    8MOL    H1414155   4.207   2.128   2.492 -0.8839  1.5006 -1.6156
    8MOL     O414156   4.200   1.557   2.591 -0.8023  0.1781 -0.2336
    8MOL    H1514157   3.805   2.107   1.730  2.5371 -0.3563  2.1521
    8MOL    H1614158   3.835   1.875   1.801 -0.2928  0.2436 -2.8161
    8MOL    H1714159   3.589   1.981   1.390 -0.2751 -1.8130  2.0807
    8MOL    H1814160   3.373   1.966   1.732 -1.0409  1.0109 -0.2649
    8MOL    H1914161   3.477   1.753   1.667 -1.1195 -2.8334  2.5194
    8MOL    H2014162   3.611   1.957   2.095  0.0591 -0.2184  2.1891
    8MOL    H2114163   3.709   1.752   2.039  2.0298  2.5218  2.3464
    8MOL    H2214164   3.606   1.436   1.865 -1.9594  1.2450 -0.4644
    8MOL    H2314165   3.637   1.750   1.437  3.1315 -1.2640  3.8996
    8MOL    F1214166   3.473   2.540   1.569 -0.0475 -0.1991  0.2686
    8MOL    C4714167   3.439   2.229   1.493 -0.7412 -0.5784 -0.3035
    8MOL    H2414168   3.422   2.179   1.398  0.2526 -0.3245 -1.1894
    8MOL    H2514169   3.371   2.319   1.496 -1.8072  2.8167 -0.0241
    8MOL    H2614170   3.416   2.165   1.577  1.2165  0.4638  1.3049
    8MOL     N114171   3.964   2.234   2.874 -0.5604 -0.1270 -0.0569
    8MOL     N214172   3.749   2.275   2.952 -0.2227 -0.1843 -0.7788
    8MOL     C114173   3.855   2.174   2.945  0.4045  0.4902  0.4706
    8MOL     C214174   3.624   2.280   3.017  0.4864  0.2607 -0.4647
    8MOL     C314175   3.607   2.201   3.133 -0.4227  0.1186  0.6255
    8MOL     C414176   3.481   2.204   3.194 -0.0015 -0.3556  0.1963
    8MOL     C514177   3.373   2.287   3.147  0.6297 -0.5605 -0.1831
    8MOL     C614178   3.394   2.371   3.041  0.4226  0.6195 -0.4736
    8MOL     C714179   3.512   2.357   2.972 -0.0828 -0.7731 -0.3771
    8MOL     N314180   3.248   2.300   3.212  0.1677  0.3845 -0.1647
    8MOL     C814181   3.140   2.247   3.152  0.4298  0.0083 -0.2186
    8MOL     C914182   3.028   2.288   3.246 -0.1219 -0.3506  0.1311
    8MOL    C1014183   3.083   2.357   3.351 -0.2073  0.1874 -0.3523
    8MOL    C1114184   3.228   2.363   3.336  0.2237  0.6945 -0.2406
    8MOL     O114185   3.307   2.417   3.406 -0.2021  0.3131  0.5179
    8MOL    C1214186   2.892   2.264   3.238 -0.3100 -0.1752  0.1693
    8MOL    C1314187   2.805   2.341   3.323 -0.3459  0.9148  0.2395
    8MOL    C1414188   2.860   2.426   3.420 -0.2244  0.8690 -0.3178
    8MOL    C1514189   2.997   2.433   3.437  0.1119  0.5669  0.1533
    8MOL    C1614190   2.611   2.178   3.323 -0.4693 -1.3417  0.0315
    8MOL    C1714191   2.548   2.104   3.222 -0.5135 -0.2038 -0.0947
    8MOL    C1814192   2.546   1.963   3.244 -0.4952 -0.0021 -0.0401
    8MOL    C1914193   2.656   2.114   3.442 -0.4075  0.3662  0.2221
    8MOL    C2014194   2.606   1.900   3.349 -0.3048 -0.4288 -0.1266
    8MOL    C2114195   2.655   1.979   3.454 -1.0282 -0.2347  0.1477
    8MOL    C2214196   2.651   2.328   3.302 -0.4153 -0.1670  0.0454
    8MOL    C2314197   2.572   2.423   3.398  0.0893 -0.2773 -0.4301
    8MOL     F114198   2.439   2.419   3.385  0.2157 -0.0890 -0.3534
    8MOL     F214199   2.616   2.551   3.382  0.2728  0.1913  0.2355
    8MOL     F314200   2.597   2.401   3.534  0.0880  0.0266  0.9792
    8MOL    C2414201   2.627   2.379   3.152 -0.2895  0.2399 -0.8410
    8MOL     F414202   2.689   2.498   3.138 -0.5212 -0.1095 -0.7014
    8MOL     F514203   2.495   2.411   3.124 -0.0576  0.6625 -0.3701
    8MOL     F614204   2.674   2.296   3.053 -0.1066 -0.4766 -0.0245
    8MOL     O214205   3.137   2.180   3.049 -0.2164 -0.6498 -0.2825
    8MOL    C2514206   2.526   1.858   3.140 -0.7434 -0.7906  1.2060
    8MOL     N414207   2.557   1.736   3.196  0.6427  0.2672  0.2006
    8MOL    C2614208   2.606   1.758   3.321  0.0409 -0.1829 -0.1375
    8MOL     O314209   2.644   1.672   3.397  0.3462 -0.8527  1.1391
    8MOL    C2714210   3.849   2.044   3.005 -0.0888 -0.4237  0.0748
    8MOL    C2814211   3.733   1.965   2.991  0.2864 -0.1598  0.1643
    8MOL    C2914212   3.950   1.999   3.088  0.3557  0.5581 -0.7346
    8MOL    C3014213   3.707   1.853   3.073  0.1470 -0.3348 -0.1020
    8MOL    C3114214   3.929   1.883   3.168  0.1008 -0.0400  0.0160
    8MOL    C3214215   3.811   1.813   3.156 -0.3475 -0.2767  0.0108
    8MOL    C3314216   3.807   1.680   3.208  0.6640 -0.1706  0.2458
    8MOL     N514217   3.822   1.565   3.124  0.0151  0.1964  0.7467
    8MOL     N614218   3.833   1.638   3.341 -0.1945 -0.6525  0.2363
    8MOL    C3414219   3.859   1.458   3.205 -0.5527  0.2404  0.5479
    8MOL    C3514220   3.879   1.510   3.324  0.0921  0.7567 -0.5901
    8MOL    C3614221   3.725   1.651   3.435  1.0078 -0.1565  0.2744
    8MOL     H114222   3.659   1.556   3.419 -1.1734  0.9891 -1.1758
    8MOL     H214223   3.660   1.738   3.409 -0.0702 -1.0494  1.6002
    8MOL     H314224   3.760   1.665   3.537  0.2228  2.3292  0.6618
    8MOL    C3714225   3.888   1.593   3.000  0.0192 -0.1201 -0.1013
    8MOL    C3814226   3.810   1.643   2.895 -0.5423  0.0441  0.6229
    8MOL    C3914227   3.871   1.688   2.779 -0.3548  0.2459  0.1725
    8MOL    C4014228   4.009   1.688   2.762 -0.0692  0.6027 -0.2576
    8MOL    C4114229   4.081   1.629   2.865 -0.7242  0.2799  0.3408
    8MOL    C4214230   4.029   1.580   2.986  0.0612  0.3645  0.4246
    8MOL    C4314231   3.951   1.435   3.433  0.5166 -0.1096  0.1024
    8MOL     F714232   3.980   1.489   3.553 -0.0711 -0.0595 -0.2598
    8MOL     F814233   4.056   1.369   3.381  0.2470 -0.6172 -0.0280
    8MOL     F914234   3.863   1.334   3.456  0.4860  0.0215 -0.3795
    8MOL    C4414235   3.796   2.382   2.875  0.8026 -0.0735 -0.3214
    8MOL    C4514236   3.920   2.363   2.837 -0.5023 -0.0989  0.4267
    8MOL    C4614237   4.012   2.462   2.759 -0.3686  0.0696  0.0483
    8MOL    F1014238   3.960   2.587   2.770 -0.0269 -0.0714 -0.2027
    8MOL    F1114239   4.133   2.458   2.812  0.4789  0.3867 -0.0882
    8MOL     H414240   3.744   2.475   2.863 -1.8318 -3.7896  2.0344
    8MOL     H514241   3.686   2.134   3.177  0.2431 -2.0562  0.6139
    8MOL     H614242   3.462   2.134   3.275  1.0253 -0.1984 -0.9454
    8MOL     H714243   3.541   2.423   2.889 -0.4898 -0.0609  1.7149
    8MOL     H814244   3.317   2.444   3.000 -0.5070  1.0594 -1.3557
    8MOL     H914245   2.863   2.192   3.165 -0.0972  1.8949 -0.6666
    8MOL    H1014246   2.801   2.481   3.488 -0.9928  0.8500 -2.3610
    8MOL    H1114247   3.048   2.507   3.498 -1.7744  0.6912  1.0121
    8MOL    H1214248   2.708   2.176   3.515 -0.6916 -1.5535  0.0674
    8MOL    H1314249   2.507   2.149   3.133 -1.5604  0.4049 -0.6480
    8MOL    H1414250   2.708   1.940   3.536 -1.0287 -0.9603 -1.4277
    8MOL     O414251   2.489   1.876   3.026 -0.3099 -0.0615 -0.3154
    8MOL    H1514252   3.657   1.993   2.924  0.7627 -1.6236  0.3619
    8MOL    H1614253   3.603   1.812   3.066 -0.5011 -0.8118  1.2970
    8MOL    H1714254   4.051   2.048   3.099  1.1954  0.5274 -0.7982
    8MOL    H1814255   3.810   1.727   2.697  0.3511  0.3789 -0.6400
    8MOL    H1914256   3.704   1.655   2.905  2.5006 -1.6005 -0.1443
    8MOL    H2014257   4.187   1.614   2.849  2.2227 -2.1551 -2.3330
    8MOL    H2114258   4.086   1.540   3.067  2.3081 -1.0116 -1.4112
    8MOL    H2214259   3.897   1.368   3.155  0.6945  1.1912  1.3475
    8MOL    H2314260   4.005   1.845   3.235 -0.2547  1.0352 -2.5919
    8MOL    F1214261   4.028   2.430   2.627 -0.2428  0.4778  0.0778
    8MOL    C4714262   4.105   2.185   2.863  0.4371 -0.7384  0.1986
    8MOL    H2414263   4.139   2.199   2.761  0.2339 -1.8166  1.2722
    8MOL    H2514264   4.121   2.080   2.870  0.3337  2.2677 -0.6742
    8MOL    H2614265   4.164   2.236   2.943 -0.1225 -1.4063 -0.3394
    8MOL     N114266   3.160   1.848   2.796  0.0844 -0.2785  0.2484
    8MOL     N214267   3.218   1.657   2.904 -0.4346 -0.4391 -0.1900
    8MOL     C114268   3.115   1.717   2.829 -0.6431  0.2824 -0.5655
    8MOL     C214269   3.224   1.529   2.960 -0.1011 -0.2005  0.1272
    8MOL     C314270   3.270   1.425   2.881 -0.6731  0.2465  0.2888
    8MOL     C414271   3.306   1.300   2.938  0.8118 -0.3032  0.3010
    8MOL     C514272   3.292   1.288   3.081 -0.0757  0.7397 -0.3691
    8MOL     C614273   3.239   1.392   3.157  0.1614 -0.4820  0.4917
    8MOL     C714274   3.201   1.512   3.093 -0.7929 -0.0974  0.7084
    8MOL     N314275   3.357   1.180   3.146  0.1832  0.0665 -0.0995
    8MOL     C814276   3.462   1.207   3.233  0.0308  0.5791  0.3816
    8MOL     C914277   3.525   1.075   3.260  0.1348  0.3878 -0.3958
    8MOL    C1014278   3.445   0.977   3.201 -0.4019  0.2266 -0.0976
    8MOL    C1114279   3.341   1.045   3.124 -0.7039  0.7781 -0.0329
    8MOL     O114280   3.263   0.989   3.050  0.4049  0.9459 -0.5586
    8MOL    C1214281   3.638   1.047   3.329 -0.0721  0.3147 -0.3436
    8MOL    C1314282   3.676   0.911   3.354 -0.2081  0.2030 -0.1159
    8MOL    C1414283   3.602   0.814   3.287  0.4550  0.0546  0.3959
    8MOL    C1514284   3.489   0.847   3.206 -0.3428 -0.4723 -0.0775
    8MOL    C1614285   3.750   0.983   3.588  0.7220  0.0477 -0.3960
    8MOL    C1714286   3.847   1.050   3.662  0.4753  0.0690 -0.0840
    8MOL    C1814287   3.809   1.124   3.777  0.1378  0.3706 -0.1638
    8MOL    C1914288   3.613   0.999   3.631 -0.0750 -0.9028  0.2364
    8MOL    C2014289   3.676   1.146   3.810 -1.0239  0.7310 -0.3102
    8MOL    C2114290   3.578   1.085   3.738 -0.2387 -0.2652 -0.9643
    8MOL    C2214291   3.790   0.898   3.459  0.4043  0.0245 -0.1412
    8MOL    C2314292   3.807   0.745   3.508 -0.3051  0.7067  0.3294
    8MOL     F114293   3.883   0.744   3.619  0.4645  0.3147  0.3137
    8MOL     F214294   3.867   0.659   3.427  0.0428  0.6456 -0.4282
    8MOL     F314295   3.693   0.683   3.542 -0.2961 -0.2429 -0.0194
    8MOL    C2414296   3.925   0.941   3.389 -0.0955 -0.2056  0.1626
    8MOL     F414297   3.937   0.885   3.264 -0.1025 -0.2516 -0.1947
    8MOL     F514298   4.031   0.902   3.462  0.2046  0.0480 -0.1683
    8MOL     F614299   3.932   1.074   3.372 -0.1315 -0.3465  0.1268
    8MOL     O214300   3.501   1.312   3.281 -0.0852  0.0010 -0.3990
    8MOL    C2514301   3.882   1.190   3.884  0.1647  0.4491  0.3391
    8MOL     N414302   3.791   1.246   3.978  0.5624 -0.3172  0.5357
    8MOL    C2614303   3.663   1.236   3.928 -0.7637  0.2832 -0.8576
    8MOL     O314304   3.563   1.295   3.973 -0.1889 -0.1379  0.6616
    8MOL    C2714305   3.007   1.653   2.775 -0.4435  0.4699  0.0146
    8MOL    C2814306   3.025   1.547   2.684  0.2943 -0.1171  0.2998
    8MOL    C2914307   2.880   1.703   2.795  0.5360 -0.4140 -0.0148
    8MOL    C3014308   2.911   1.476   2.642 -0.6666 -0.1681  0.3451
    8MOL    C3114309   2.775   1.647   2.739 -0.2705  0.3307  0.0228
    8MOL    C3214310   2.783   1.523   2.674  0.3480  0.3420 -0.3426
    8MOL    C3314311   2.672   1.438   2.673  0.9399 -1.0412  0.5559
    8MOL     N514312   2.598   1.378   2.776  0.5609  0.2906 -0.2656
    8MOL     N614313   2.604   1.396   2.551 -0.7102 -0.3097 -0.2062
    8MOL    C3414314   2.493   1.312   2.716  0.0207  1.0999 -0.2007
    8MOL    C3514315   2.492   1.321   2.585  0.0659 -0.2152 -0.2303
    8MOL    C3614316   2.679   1.388   2.426 -0.1951  0.5662  0.2475
    8MOL     H114317   2.616   1.331   2.347  1.8371  3.0965  1.2084
    8MOL     H214318   2.772   1.334   2.441  2.0270  0.7064  1.7463
    8MOL     H314319   2.708   1.486   2.386  0.4968 -2.3099 -0.5358
    8MOL    C3714320   2.586   1.436   2.904  0.2993 -0.0341  0.7522
    8MOL    C3814321   2.705   1.480   2.967  0.6970 -0.4816  0.3375
    8MOL    C3914322   2.689   1.573   3.074  0.6259 -0.2617 -0.3432
    8MOL    C4014323   2.565   1.621   3.115  0.0593 -0.1745  0.3315
    8MOL    C4114324   2.450   1.555   3.062 -0.1984  0.2316  0.1825
    8MOL    C4214325   2.460   1.473   2.950 -0.7369  0.1352  0.0241
    8MOL    C4314326   2.381   1.278   2.488 -0.4208 -1.5087  0.1079
    8MOL     F714327   2.411   1.298   2.356 -0.2338  0.0681  0.6034
    8MOL     F814328   2.270   1.354   2.509  0.6176 -0.3821  0.1582
    8MOL     F914329   2.339   1.152   2.506  0.2914 -0.0459 -0.0592
    8MOL    C4414330   3.322   1.748   2.913  1.0368  0.2649  0.3192
    8MOL    C4514331   3.296   1.856   2.849 -0.0176 -0.5349  0.7262
    8MOL    C4614332   3.395   1.976   2.838  0.0185  0.6938  0.0094
    8MOL    F1014333   3.506   1.937   2.783 -0.0215 -0.6930 -0.2684
    8MOL    F1114334   3.351   2.082   2.769 -0.0392 -0.4482 -0.1505
    8MOL     H414335   3.409   1.720   2.965  1.2070  1.5271 -0.0773
    8MOL     H514336   3.295   1.448   2.778  0.6670  0.4963 -0.7191
    8MOL     H614337   3.359   1.230   2.883 -0.2656 -3.0627  1.6186
    8MOL     H714338   3.161   1.594   3.152 -0.3310 -0.3894 -1.1992
    8MOL     H814339   3.227   1.389   3.269  2.0613 -0.5900  1.2894
    8MOL     H914340   3.694   1.131   3.367  0.6576 -0.8799  0.3612
    8MOL    H1014341   3.618   0.703   3.297  2.6435 -1.9304  1.3575
    8MOL    H1114342   3.437   0.764   3.161  0.7328  2.2473 -1.7208
    8MOL    H1214343   3.534   0.932   3.578 -0.2850 -0.4374 -3.5055
    8MOL    H1314344   3.954   1.048   3.635 -1.7831 -2.3080  2.6132
    8MOL    H1414345   3.477   1.087   3.768  2.2407 -1.5223 -0.1739
    8MOL     O414346   4.002   1.201   3.887  0.1153 -0.8116  0.4132
    8MOL    H1514347   3.128   1.510   2.672  1.3420  0.4465  1.9463
    8MOL    H1614348   2.934   1.383   2.594  0.1241  0.7837 -0.7653
    8MOL    H1714349   2.864   1.788   2.863 -2.0529 -2.5171  1.5756
    8MOL    H1814350   2.786   1.623   3.110  1.0649 -1.0260  0.1043
    8MOL    H1914351   2.797   1.447   2.924  0.0877 -1.8345  1.8135
    8MOL    H2014352   2.349   1.578   3.101 -1.2807  0.9799 -1.0007
    8MOL    H2114353   2.368   1.425   2.907 -1.7641  0.3452 -0.4327
    8MOL    H2214354   2.419   1.257   2.774  1.5142 -3.3203  0.2725
    8MOL    H2314355   2.671   1.666   2.761  1.7946 -1.3618 -0.6728
    8MOL    F1214356   3.437   2.016   2.959  0.3104 -0.2269 -0.1164
    8MOL    C4714357   3.114   1.903   2.665 -0.3962  0.7117 -0.4022
    8MOL    H2414358   3.204   1.921   2.598 -0.4123  3.1456  0.8642
    8MOL    H2514359   3.061   1.999   2.683  1.6284 -1.0336  0.5007
    8MOL    H2614360   3.045   1.836   2.612 -0.3217 -0.2975 -0.2860
    8MOL     N114361   3.565   1.603   3.793 -0.1145  0.6852 -0.1254
    8MOL     N214362   3.376   1.738   3.805  0.2730  0.1108 -0.5744
    8MOL     C114363   3.494   1.690   3.880  0.9468 -0.7578 -0.2209
    8MOL     C214364   3.281   1.840   3.837 -0.3363  0.2037  0.1998
    8MOL     C314365   3.286   1.910   3.951  0.2748 -0.4171  0.3595
    8MOL     C414366   3.210   2.026   3.977  0.2871  0.8929 -0.2326
    8MOL     C514367   3.115   2.072   3.878  0.5023  0.6377  0.1221
    8MOL     C614368   3.107   2.001   3.754  0.0665  0.7701  0.6842
    8MOL     C714369   3.186   1.884   3.738  0.1352 -0.0838  0.0579
    8MOL     N314370   3.036   2.188   3.900  0.0690  0.2662  0.4560
    8MOL     C814371   3.032   2.285   3.804  0.0108  0.5157  0.1357
    8MOL     C914372   2.956   2.395   3.865 -0.0707 -0.3225 -0.2492
    8MOL    C1014373   2.919   2.357   3.996 -0.3610  0.5887  0.0712
    8MOL    C1114374   2.969   2.216   4.017  0.3572 -0.3196 -0.1107
    8MOL     O114375   2.955   2.148   4.116 -0.8469  0.2756 -0.5336
    8MOL    C1214376   2.906   2.510   3.810  0.6858 -0.3199  0.4169
    8MOL    C1314377   2.828   2.602   3.887 -0.5680  0.3472 -0.3794
    8MOL    C1414378   2.809   2.574   4.024 -0.0563 -0.6917 -0.1512
    8MOL    C1514379   2.839   2.442   4.074 -0.2551  0.1350 -0.4897
    8MOL    C1614380   2.771   2.848   3.915 -0.1602 -0.2801 -0.7966
    8MOL    C1714381   2.662   2.915   3.975  0.4442 -0.3526 -0.0965
    8MOL    C1814382   2.682   3.021   4.066  0.3818 -0.2835 -0.2321
    8MOL    C1914383   2.904   2.902   3.941  0.0642  0.0936 -0.3126
    8MOL    C2014384   2.811   3.067   4.088  0.3402  0.3056 -0.3466
    8MOL    C2114385   2.923   3.015   4.026  0.2030  0.2973  0.6601
    8MOL    C2214386   2.753   2.723   3.824 -0.1006  0.0002 -0.0789
    8MOL    C2314387   2.808   2.772   3.685 -0.0530  0.8929 -0.2604
    8MOL     F114388   2.755   2.890   3.653  0.1120  0.1817 -0.7184
    8MOL     F214389   2.776   2.693   3.584  0.0829 -0.0551 -0.3604
    8MOL     F314390   2.943   2.784   3.672 -0.2560  0.2287 -0.5941
    8MOL    C2414391   2.604   2.683   3.804 -0.3752 -0.0297  0.0641
    8MOL     F414392   2.581   2.578   3.725  0.0173 -0.1928 -0.2176
    8MOL     F514393   2.541   2.787   3.748 -0.4673  0.0748  0.7517
    8MOL     F614394   2.546   2.655   3.922  0.3100  0.3517  0.5213
    8MOL     O214395   3.066   2.282   3.688  0.2061  0.1277 -0.1074
    8MOL    C2514396   2.582   3.098   4.149  0.3205 -0.0514  0.9631
    8MOL     N414397   2.658   3.195   4.210  0.3777  0.1124  0.0122
    8MOL    C2614398   2.794   3.182   4.179  0.9872 -0.0491  0.3212
    8MOL     O314399   2.884   3.252   4.216  0.2604  0.5312 -0.1674
    8MOL    C2714400   3.524   1.695   4.016  0.8259 -0.1735  0.3348
    8MOL    C2814401   3.498   1.582   4.094 -0.0644 -0.2896 -0.1957
    8MOL    C2914402   3.585   1.809   4.069  0.7444  0.2696 -0.0717
    8MOL    C3014403   3.541   1.583   4.228 -0.2007 -0.7504  0.2837
    8MOL    C3114404   3.622   1.814   4.202 -0.3078 -0.0753 -0.4389
    8MOL    C3214405   3.614   1.696   4.281 -0.3288 -0.3049 -0.0336
    8MOL    C3314406   3.697   1.682   4.398  0.3352  0.0755  0.9815
    8MOL     N514407   3.814   1.608   4.396  0.5704  0.1887  0.8446
    8MOL     N614408   3.708   1.767   4.512 -0.1904 -0.5930  0.8578
    8MOL    C3414409   3.888   1.641   4.509 -0.8226 -0.2845  0.7759
    8MOL    C3514410   3.825   1.730   4.577 -0.4832 -0.2135 -0.3217
    8MOL    C3614411   3.611   1.868   4.558 -0.1299  0.1956 -1.0428
    8MOL     H114412   3.639   1.902   4.660 -1.2826  1.9850 -0.7596
    8MOL     H214413   3.517   1.820   4.555 -0.8304  2.2897  0.1978
    8MOL     H314414   3.605   1.960   4.493 -1.0317 -1.3344  0.5453
    8MOL    C3714415   3.836   1.510   4.298 -0.0350  0.1247  0.5563
    8MOL    C3814416   3.801   1.376   4.325 -0.9334  0.9101 -0.7858
    8MOL    C3914417   3.794   1.283   4.223  0.2029 -0.3437  0.2876
    8MOL    C4014418   3.823   1.328   4.090  0.2521  0.1589  0.8727
    8MOL    C4114419   3.866   1.460   4.066 -0.4395  0.4630 -0.8889
    8MOL    C4214420   3.870   1.555   4.172 -0.0114  0.0297 -0.3979
    8MOL    C4314421   3.888   1.799   4.700 -0.1402  0.0315 -0.2463
    8MOL     F714422   3.843   1.928   4.723 -0.2875  0.0438  0.3140
    8MOL     F814423   4.020   1.810   4.672 -0.3631 -0.4677 -0.3877
    8MOL     F914424   3.872   1.734   4.818 -0.8083  0.1169 -0.2986
    8MOL    C4414425   3.380   1.661   3.687  0.1079  0.1224 -0.4310
    8MOL    C4514426   3.481   1.579   3.682 -0.4457 -0.0898  0.1273
    8MOL    C4614427   3.478   1.461   3.587  0.4518 -0.4007  0.2118
    8MOL    F1014428   3.603   1.419   3.567  0.2057  0.1881 -0.1953
    8MOL    F1114429   3.402   1.359   3.629  0.2232  0.1595  0.6820
    8MOL     H414430   3.300   1.660   3.620  0.2179 -0.0635  1.2884
    8MOL     H514431   3.358   1.873   4.021  3.8324 -0.6782  1.2917
    8MOL     H614432   3.216   2.072   4.076  0.4751 -1.3532 -1.5391
    8MOL     H714433   3.181   1.833   3.639 -3.2985  0.6240 -2.1739
    8MOL     H814434   3.043   2.040   3.673  0.3099  0.6167  1.9543
    8MOL     H914435   2.934   2.535   3.708 -1.7618  3.5504  0.4398
    8MOL    H1014436   2.751   2.644   4.097  0.8976  1.0323 -0.0622
    8MOL    H1114437   2.802   2.407   4.174 -0.9506  1.6966 -1.1396
    8MOL    H1214438   2.988   2.850   3.890  0.2802 -0.8297 -1.6357
    8MOL    H1314439   2.558   2.887   3.956 -0.4641  0.1361  1.3668
    8MOL    H1414440   3.019   3.064   4.029  2.1899  0.9113  1.1291
    8MOL     O414441   2.459   3.088   4.148  0.1427  0.0586  0.5531
    8MOL    H1514442   3.475   1.492   4.044  1.6456  0.0327 -1.2364
    8MOL    H1614443   3.524   1.496   4.287  0.6974  2.9223  1.3323
    8MOL    H1714444   3.604   1.900   4.015  0.9393 -0.5280 -0.6042
    8MOL    H1814445   3.755   1.178   4.242  0.7262 -0.1867  0.9585
    8MOL    H1914446   3.765   1.344   4.427  0.1113 -0.0374  1.8307
    8MOL    H2014447   3.915   1.488   3.966  0.9765 -0.0009 -0.3568
    8MOL    H2114448   3.899   1.655   4.153 -1.6466 -2.0001 -2.2286
    8MOL    H2214449   3.986   1.594   4.524  1.9196 -1.8785  0.0213
    8MOL    H2314450   3.681   1.891   4.245  1.5793 -0.5955 -1.1180
    8MOL    F1214451   3.432   1.503   3.465 -0.0776  0.7521 -0.4043
    8MOL    C4714452   3.705   1.625   3.773 -0.4381 -0.3504 -0.6120
    8MOL    H2414453   3.720   1.722   3.735  1.8611  0.5726  1.8340
    8MOL    H2514454   3.756   1.555   3.708  1.1964  0.4183  2.1013
    8MOL    H2614455   3.745   1.623   3.873 -0.7985  0.5019  0.1063
    8MOL     N114456   2.880   2.946   4.420 -0.8562 -0.0346 -0.1151
    8MOL     N214457   3.083   3.046   4.434  0.1463 -0.5993 -0.5533
    8MOL     C114458   2.943   3.070   4.454 -0.0237  0.0101 -0.0598
    8MOL     C214459   3.172   3.122   4.351 -0.8543  1.3781 -0.3047
    8MOL     C314460   3.218   3.250   4.389 -0.1911 -0.9720  0.2021
    8MOL     C414461   3.309   3.323   4.308  0.3923  0.3597 -0.6868
    8MOL     C514462   3.351   3.263   4.183 -0.4724  0.0035 -0.1459
    8MOL     C614463   3.303   3.135   4.148  0.3132  0.3242  0.2557
    8MOL     C714464   3.221   3.063   4.234  0.8162  0.1975 -0.5599
    8MOL     N314465   3.446   3.331   4.103 -0.4606 -0.2927  0.3388
    8MOL     C814466   3.554   3.254   4.049  0.0352 -0.4743 -0.3880
    8MOL     C914467   3.619   3.357   3.960  0.7818  0.1887 -0.8993
    8MOL    C1014468   3.553   3.478   3.964 -0.1862 -0.6602  0.1792
    8MOL    C1114469   3.443   3.460   4.059  0.0337 -0.4390 -0.7763
    8MOL     O114470   3.356   3.543   4.099 -0.0113  0.5128 -0.4408
    8MOL    C1214471   3.730   3.338   3.881  0.1776 -0.2957 -0.6812
    8MOL    C1314472   3.763   3.432   3.790  0.1651  1.1997  0.1479
    8MOL    C1414473   3.698   3.558   3.795 -0.0359  0.1611  1.0462
    8MOL    C1514474   3.595   3.586   3.886  0.1830 -0.3257 -0.5298
    8MOL    C1614475   3.837   3.241   3.638 -0.3264 -0.0887  0.4968
    8MOL    C1714476   3.929   3.137   3.661 -0.9620 -0.0896 -0.5196
    8MOL    C1814477   3.878   3.001   3.657 -0.1524 -0.6499  1.1891
    8MOL    C1914478   3.700   3.209   3.602 -0.0125  0.4301  0.5361
    8MOL    C2014479   3.749   2.970   3.627  0.8578 -0.3442  0.5762
    8MOL    C2114480   3.654   3.074   3.597 -0.0648 -0.0392  0.1365
    8MOL    C2214481   3.865   3.390   3.678 -0.2455 -0.3308  0.2247
    8MOL    C2314482   3.857   3.481   3.554  0.7625  0.1054 -0.1765
    8MOL     F114483   3.934   3.434   3.451 -0.4202  0.1214  0.3949
    8MOL     F214484   3.891   3.614   3.573  0.2961  0.2236  0.0652
    8MOL     F314485   3.737   3.478   3.503 -0.1207 -0.4294 -0.5755
    8MOL    C2414486   4.008   3.412   3.743  0.9787  0.2346 -0.0459
    8MOL     F414487   4.033   3.533   3.789 -0.0528 -0.3102 -0.5228
    8MOL     F514488   4.104   3.390   3.650  0.1504 -0.0661 -0.6746
    8MOL     F614489   4.033   3.328   3.849 -0.0708 -0.3072 -0.4901
    8MOL     O214490   3.585   3.135   4.057 -0.5708  0.0304  0.0903
    8MOL    C2514491   3.946   2.877   3.699 -0.1111  0.2281  0.2895
    8MOL     N414492   3.846   2.787   3.715  0.4322  0.6347 -0.1832
    8MOL    C2614493   3.726   2.823   3.656 -0.4834 -0.3826  0.4924
    8MOL     O314494   3.630   2.753   3.646  0.4206 -0.2557  0.1834
    8MOL    C2714495   2.892   3.180   4.526  0.3343 -0.3414 -0.0181
    8MOL    C2814496   2.926   3.309   4.487 -0.5509 -0.2370  0.3856
    8MOL    C2914497   2.803   3.160   4.637 -0.4824 -0.2031  0.5891
    8MOL    C3014498   2.874   3.419   4.547  0.0862  0.0651 -0.1436
    8MOL    C3114499   2.746   3.269   4.700 -0.2190 -0.5980  0.1632
    8MOL    C3214500   2.773   3.403   4.650  0.2157 -1.5236  0.3056
    8MOL    C3314501   2.690   3.511   4.687 -0.1195 -0.1471  0.4760
    8MOL     N514502   2.575   3.549   4.613 -0.5045 -0.0752  0.5246
    8MOL     N614503   2.700   3.604   4.790  0.3269  0.0201 -0.6136
    8MOL    C3414504   2.517   3.655   4.673 -0.6235 -0.2616 -0.0302
    8MOL    C3514505   2.588   3.696   4.775  0.5582  0.8925 -0.6136
    8MOL    C3614506   2.815   3.611   4.880 -0.0409 -0.7121  0.0915
    8MOL     H114507   2.810   3.716   4.915 -0.1920  1.7339  1.4060
    8MOL     H214508   2.897   3.583   4.819 -0.6332 -2.2341 -3.2916
    8MOL     H314509   2.807   3.537   4.955  1.6849  2.6345  0.4841
    8MOL    C3714510   2.533   3.480   4.499 -0.2818  0.1972 -0.3308
    8MOL    C3814511   2.611   3.519   4.391 -0.8970 -0.2449  0.2179
    8MOL    C3914512   2.642   3.425   4.296 -0.0243 -0.3358  0.1409
    8MOL    C4014513   2.602   3.290   4.298  0.1496 -0.0017  0.8260
    8MOL    C4114514   2.530   3.251   4.410  0.0856 -0.0040  0.0899
    8MOL    C4214515   2.487   3.343   4.505 -0.1795  0.5429 -0.0602
    8MOL    C4314516   2.546   3.808   4.868  0.2988  0.1735  0.4682
    8MOL     F714517   2.636   3.826   4.965 -0.0538  0.1309 -0.0354
    8MOL     F814518   2.426   3.772   4.924  0.6467 -0.5646  0.0860
    8MOL     F914519   2.529   3.924   4.801 -0.3093 -0.1864  0.5502
    8MOL    C4414520   3.098   2.907   4.443  0.8757  0.7600  0.0519
    8MOL    C4514521   2.981   2.853   4.424  0.1188  0.3269  0.0622
    8MOL    C4614522   2.957   2.704   4.402  0.9292  0.7255 -0.1522
    8MOL    F1014523   2.840   2.644   4.446  0.6771 -0.0209 -0.4246
    8MOL    F1114524   2.973   2.684   4.271 -0.2025 -0.8701  0.8257
    8MOL     H414525   3.194   2.864   4.455 -0.7721 -0.7832 -2.0672
    8MOL     H514526   3.177   3.294   4.481  0.4971 -0.1025 -0.1537
    8MOL     H614527   3.347   3.413   4.349 -0.8686 -1.8298 -0.2300
    8MOL     H714528   3.197   2.958   4.214 -2.7123 -2.2778  1.5056
    8MOL     H814529   3.335   3.079   4.055  1.4324 -1.9888 -2.5960
    8MOL     H914530   3.783   3.245   3.879 -0.7893 -1.0391 -0.6607
    8MOL    H1014531   3.731   3.642   3.731 -0.7107 -0.3230 -2.3539
    8MOL    H1114532   3.554   3.686   3.898 -0.1228  1.3925  1.4520
    8MOL    H1214533   3.624   3.282   3.601  0.9238  0.2450  0.7534
    8MOL    H1314534   4.034   3.162   3.690  0.7915  1.1985  0.4625
    8MOL    H1414535   3.549   3.047   3.584  1.5432  0.8214  0.8749
    8MOL     O414536   4.063   2.874   3.733  0.2073 -0.2903 -0.1189
    8MOL    H1514537   3.000   3.313   4.402  1.9190  1.1888 -0.8829
    8MOL    H1614538   2.903   3.518   4.502  1.7236 -0.3253 -0.3858
    8MOL    H1714539   2.782   3.061   4.669 -0.6286  0.4940 -0.1620
    8MOL    H1814540   2.712   3.456   4.217  2.4934 -0.1552 -1.0728
    8MOL    H1914541   2.668   3.614   4.395  0.6694 -1.2403  1.6143
    8MOL    H2014542   2.491   3.148   4.411 -1.5764 -0.8725 -0.5748
    8MOL    H2114543   2.428   3.309   4.591 -1.2671  1.0988  0.6175
    8MOL    H2214544   2.423   3.683   4.633 -0.3903  0.2140  0.4136
    8MOL    H2314545   2.683   3.248   4.788  1.5659  1.4092 -0.7606
    8MOL    F1214546   3.057   2.629   4.458  0.3253 -0.2882 -0.4212
    8MOL    C4714547   2.741   2.910   4.447 -0.2714 -1.1258  0.7959
    8MOL    H2414548   2.729   2.878   4.550  0.7177 -1.7903  0.3607
    8MOL    H2514549   2.706   2.818   4.386 -1.1491 -1.1983 -1.0398
    8MOL    H2614550   2.683   3.000   4.422 -0.5928  0.7447 -1.0213
    8MOL     N114551   4.216   2.955   4.423 -0.7936 -0.2792  0.3125
    8MOL     N214552   4.000   2.982   4.371 -0.0869  0.1135  1.1037
    8MOL     C114553   4.099   2.883   4.396  0.2024 -0.1541 -0.1494
    8MOL     C214554   3.856   2.967   4.382  0.0122 -0.3052 -0.3196
    8MOL     C314555   3.808   2.860   4.458  0.0439  0.1364 -1.1687
    8MOL     C414556   3.671   2.865   4.499 -0.2877  0.4586  1.1450
    8MOL     C514557   3.588   2.970   4.460  0.0397 -0.5613  0.0378
    8MOL     C614558   3.634   3.065   4.365 -0.7217  0.0453 -0.1201
    8MOL     C714559   3.765   3.063   4.328 -1.0808 -0.0137 -0.8643
    8MOL     N314560   3.464   2.986   4.530 -0.6673 -0.2497 -0.2933
    8MOL     C814561   3.433   3.118   4.571  0.2579 -0.2156  0.7420
    8MOL     C914562   3.340   3.098   4.687 -0.1895  0.1238  0.0255
    8MOL    C1014563   3.301   2.966   4.696 -0.0890  0.1520  0.7124
    8MOL    C1114564   3.394   2.889   4.597 -0.1091  0.6942  0.5380
    8MOL     O114565   3.409   2.770   4.573  0.4736  0.2946 -0.0501
    8MOL    C1214566   3.293   3.192   4.777  0.0704 -0.6950  0.3064
    8MOL    C1314567   3.215   3.150   4.887 -0.0739  0.0080 -0.3131
    8MOL    C1414568   3.173   3.014   4.898 -0.5029  0.5276  0.6792
    8MOL    C1514569   3.215   2.924   4.803 -0.6038 -0.5389  0.5710
    8MOL    C1614570   3.235   3.395   4.950  0.2774 -0.2634  0.5312
    8MOL    C1714571   3.182   3.505   4.876  0.4324  1.2489  0.5576
    8MOL    C1814572   3.265   3.599   4.814 -0.4062  0.1459  0.4917
    8MOL    C1914573   3.376   3.400   4.975  0.3317 -0.5848  0.1414
    8MOL    C2014574   3.400   3.595   4.835  0.1887  0.2586 -0.0181
    8MOL    C2114575   3.459   3.503   4.923  0.1284  0.0691 -0.5705
    8MOL    C2214576   3.158   3.266   4.984 -0.5651 -0.2733  0.1366
    8MOL    C2314577   3.018   3.271   4.926 -0.2495 -0.4592 -0.0226
    8MOL     F114578   3.020   3.274   4.788 -0.0368  0.2367  0.3941
    8MOL     F214579   2.949   3.374   4.978  0.0059  0.7190 -0.1985
    8MOL     F314580   2.949   3.159   4.956  0.2942  0.2186 -0.3561
    8MOL    C2414581   3.155   3.235   5.141  0.0600  0.0927 -0.0194
    8MOL     F414582   3.035   3.236   5.197  0.5034 -0.1576 -0.2208
    8MOL     F514583   3.216   3.331   5.209  0.0133  0.2872  0.2579
    8MOL     F614584   3.217   3.120   5.173  0.0311  0.1591  0.7096
    8MOL     O214585   3.471   3.226   4.541  0.2260 -0.2546  0.0962
    8MOL    C2514586   3.237   3.704   4.712  0.2692 -0.0945  0.1789
    8MOL     N414587   3.361   3.760   4.683  0.3091  0.0575  0.5214
    8MOL    C2614588   3.463   3.702   4.752  0.1870  0.3127  0.5047
    8MOL     O314589   3.580   3.733   4.742  0.3477 -0.0345 -0.5480
    8MOL    C2714590   4.103   2.746   4.363  0.1848  0.5430 -0.2568
    8MOL    C2814591   4.042   2.642   4.435  0.2180  0.1297  0.2661
    8MOL    C2914592   4.165   2.716   4.242 -0.2753  0.7171  0.6889
    8MOL    C3014593   4.007   2.521   4.376  0.2069 -0.1886  0.3936
    8MOL    C3114594   4.151   2.582   4.190  0.0339 -1.5334 -0.0413
    8MOL    C3214595   4.065   2.490   4.251 -0.5675  1.1792 -0.0516
    8MOL    C3314596   4.037   2.369   4.190  0.1013  0.0824  0.3959
    8MOL     N514597   3.967   2.358   4.067 -0.5252 -0.5403 -0.1078
    8MOL     N614598   4.052   2.235   4.238  0.1936 -0.0971  0.4758
    8MOL    C3414599   3.937   2.223   4.052  0.0822 -0.2437  0.5562
    8MOL    C3514600   3.985   2.152   4.148 -0.2132  0.3658 -0.0491
    8MOL    C3614601   4.135   2.196   4.355  0.6594  0.5031 -0.3728
    8MOL     H114602   4.144   2.089   4.379  0.5137 -0.3455 -0.8759
    8MOL     H214603   4.085   2.231   4.436 -1.0039  1.2088 -1.4602
    8MOL     H314604   4.233   2.249   4.351 -0.9581 -1.3440 -0.0586
    8MOL    C3714605   3.940   2.464   3.979 -0.4310  0.1882 -0.6827
    8MOL    C3814606   3.875   2.581   4.027  0.1055 -0.1586  0.6121
    8MOL    C3914607   3.831   2.683   3.940  0.2784  0.0037 -1.3519
    8MOL    C4014608   3.864   2.669   3.801 -0.1510 -0.0911  0.1798
    8MOL    C4114609   3.940   2.560   3.756  0.5716  0.0590  0.5399
    8MOL    C4214610   3.973   2.456   3.842 -0.4029 -0.1273  0.1972
    8MOL    C4314611   3.983   2.000   4.171 -0.5228 -0.0238 -0.2453
    8MOL     F714612   4.106   1.954   4.219 -0.3291  0.0276  0.0202
    8MOL     F814613   3.947   1.930   4.059 -0.1848 -0.3227 -0.8608
    8MOL     F914614   3.889   1.976   4.270 -0.0998 -0.2318  0.8202
    8MOL    C4414615   4.067   3.107   4.370  0.9500  0.1809  0.7257
    8MOL    C4514616   4.192   3.092   4.412  0.3872 -0.1289 -0.5410
    8MOL    C4614617   4.294   3.195   4.396 -0.0764  0.2733  0.3475
    8MOL    F1014618   4.380   3.206   4.503 -0.0678  0.2567 -0.2095
    8MOL    F1114619   4.372   3.179   4.281 -0.2436  0.1366 -0.1708
    8MOL     H414620   4.014   3.198   4.338 -1.8046  0.1314 -0.0794
    8MOL     H514621   3.863   2.779   4.493  0.9089  2.0850  0.5045
    8MOL     H614622   3.647   2.798   4.580 -0.2112 -1.1314 -0.5991
    8MOL     H714623   3.793   3.139   4.248 -0.3093 -0.2731  1.5108
    8MOL     H814624   3.571   3.146   4.327  0.2511 -1.1893  0.3443
    8MOL     H914625   3.309   3.296   4.756  0.8703  2.0022 -0.6189
    8MOL    H1014626   3.118   2.989   4.986  1.3345  0.0509 -1.2252
    8MOL    H1114627   3.184   2.818   4.812 -1.9325  0.3251 -4.0229
    8MOL    H1214628   3.419   3.311   5.024  0.5154  0.7035 -0.6555
    8MOL    H1314629   3.080   3.509   4.859 -0.3363  2.3738  2.9917
    8MOL    H1414630   3.566   3.501   4.927 -0.6500  0.1823  0.0416
    8MOL     O414631   3.123   3.725   4.670  0.1125 -0.1829 -0.0816
    8MOL    H1514632   4.003   2.663   4.533 -1.6491 -0.6147 -1.7595
    8MOL    H1614633   3.953   2.441   4.425  1.8945 -2.4036  0.0618
    8MOL    H1714634   4.219   2.802   4.190  2.7828  1.0641 -0.8836
    8MOL    H1814635   3.783   2.779   3.973 -0.9740  2.8592 -1.1851
    8MOL    H1914636   3.854   2.592   4.128  0.7708  2.1386 -0.3365
    8MOL    H2014637   3.969   2.562   3.651 -0.1991  0.1006  2.0900
    8MOL    H2114638   4.034   2.374   3.809 -0.6075 -2.1913 -0.3761
    8MOL    H2214639   3.881   2.190   3.959  3.0077 -2.4003 -2.7749
    8MOL    H2314640   4.197   2.560   4.093 -2.1035  2.1820  0.2920
    8MOL    F1214641   4.248   3.318   4.377 -0.1518  0.1827 -0.0946
    8MOL    C4714642   4.309   2.896   4.524 -0.9135  0.2829 -0.5219
    8MOL    H2414643   4.274   2.912   4.630 -1.8164  1.1799 -3.5684
    8MOL    H2514644   4.408   2.932   4.518 -1.0630  0.6511 -1.9940
    8MOL    H2614645   4.313   2.785   4.506 -1.2764  0.3458  0.8519
    8MOL     N114646   2.977   4.555   4.810 -0.8575  0.4822  0.4309
    8MOL     N214647   3.027   4.345   4.886  0.0052 -0.2170 -0.1994
    8MOL     C114648   3.047   4.436   4.779 -0.4460 -0.7306 -0.1689
    8MOL     C214649   3.092   4.230   4.925 -0.1233  0.1489 -0.6357
    8MOL     C314650   3.053   4.107   4.869 -1.1146  0.0596 -0.1215
    8MOL     C414651   3.119   3.995   4.915  0.0002  0.8283  0.5947
    8MOL     C514652   3.216   4.004   5.014 -0.2624  0.0363  0.3026
    8MOL     C614653   3.258   4.128   5.070  0.2723  0.6324  0.1761
    8MOL     C714654   3.196   4.237   5.019 -0.9867 -0.0692  0.7550
    8MOL     N314655   3.295   3.893   5.057  0.2156 -0.6429  0.3741
    8MOL     C814656   3.427   3.891   5.024 -0.6215  0.3050 -0.3534
    8MOL     C914657   3.479   3.781   5.104  0.0223  0.2526 -0.1070
    8MOL    C1014658   3.374   3.712   5.166 -0.4110  0.6862 -0.0037
    8MOL    C1114659   3.252   3.788   5.135 -0.9890 -0.4825  0.2582
    8MOL     O114660   3.137   3.772   5.164  0.0138  0.1459 -0.2921
    8MOL    C1214661   3.610   3.724   5.105 -0.7872 -0.4788  0.9722
    8MOL    C1314662   3.633   3.614   5.192 -0.1455  1.0321  0.3075
    8MOL    C1414663   3.531   3.560   5.270  0.1126  0.8701 -0.2218
    8MOL    C1514664   3.396   3.605   5.251 -0.0797 -0.2258  0.1064
    8MOL    C1614665   3.786   3.398   5.199  0.3442  0.1255  1.0229
    8MOL    C1714666   3.756   3.327   5.078  0.1825  0.3520  0.8908
    8MOL    C1814667   3.819   3.205   5.065  0.3468  0.3154 -0.1678
    8MOL    C1914668   3.845   3.331   5.302  0.0058 -0.3243 -0.1299
    8MOL    C2014669   3.898   3.150   5.162 -0.1801 -0.3146 -0.0142
    8MOL    C2114670   3.906   3.206   5.288  0.2747 -0.4633 -0.1984
    8MOL    C2214671   3.780   3.553   5.199  0.1186 -0.1710  0.0636
    8MOL    C2314672   3.867   3.601   5.077 -0.4782  0.4424 -0.0208
    8MOL     F114673   3.974   3.517   5.065  0.0193  0.3570  0.2451
    8MOL     F214674   3.927   3.721   5.083 -0.4262  0.0458  0.5715
    8MOL     F314675   3.803   3.603   4.958 -0.4164  0.0288  0.0571
    8MOL    C2414676   3.848   3.625   5.325 -0.7434  0.0291  0.5573
    8MOL     F414677   3.845   3.759   5.320  0.4815  0.3123  0.4056
    8MOL     F514678   3.975   3.589   5.337 -0.1995  0.0597 -0.1882
    8MOL     F614679   3.789   3.590   5.442  0.2260 -0.2654 -0.3690
    8MOL     O214680   3.486   3.973   4.956  0.1315  0.3693 -0.0394
    8MOL    C2514681   3.819   3.099   4.952  0.4637 -0.1494  0.7298
    8MOL     N414682   3.897   2.995   4.997  0.2875 -0.2585  0.6143
    8MOL    C2614683   3.943   3.015   5.123 -0.3482  0.1136 -0.3589
    8MOL     O314684   4.006   2.935   5.190 -0.3159 -0.3425 -0.2714
    8MOL    C2714685   3.105   4.403   4.654  0.2822  0.2364 -0.2790
    8MOL    C2814686   3.075   4.278   4.597  0.3283 -0.1865  0.0826
    8MOL    C2914687   3.203   4.481   4.594  0.1433 -0.0468 -0.0829
    8MOL    C3014688   3.149   4.230   4.485  0.6221  0.4967  0.1275
    8MOL    C3114689   3.271   4.433   4.479 -0.1597 -0.7526  0.2542
    8MOL    C3214690   3.238   4.317   4.419  0.0099 -0.0943  0.5343
    8MOL    C3314691   3.315   4.276   4.307  0.1379 -0.0652  0.1361
    8MOL     N514692   3.423   4.181   4.307 -0.0389 -0.0939  0.5058
    8MOL     N614693   3.274   4.282   4.168  0.3330 -0.4557 -0.2502
    8MOL    C3414694   3.475   4.195   4.176  0.3511  0.5923  0.2874
    8MOL    C3514695   3.388   4.253   4.095  0.4537 -0.6053  0.1086
    8MOL    C3614696   3.166   4.190   4.148 -0.2672 -0.2374  0.2716
    8MOL     H114697   3.184   4.105   4.213 -1.0228  2.1260  0.2560
    8MOL     H214698   3.158   4.154   4.044 -1.8585  2.4102  0.0682
    8MOL     H314699   3.070   4.231   4.172  0.9920  2.0276  0.3480
    8MOL    C3714700   3.417   4.068   4.388 -0.4223  0.1117 -0.4727
    8MOL    C3814701   3.338   3.957   4.356  0.2249 -0.9402  0.4801
    8MOL    C3914702   3.323   3.854   4.452  0.2838  0.1886 -0.6858
    8MOL    C4014703   3.378   3.868   4.586  0.1717 -0.4970  0.5123
    8MOL    C4114704   3.467   3.975   4.607  0.1872 -0.3923  0.3963
    8MOL    C4214705   3.485   4.076   4.505  0.2723 -0.0482 -0.6563
    8MOL    C4314706   3.411   4.279   3.943  0.5235 -0.7486 -0.0814
    8MOL     F714707   3.405   4.411   3.909  0.0066 -0.2462 -0.0196
    8MOL     F814708   3.316   4.217   3.870 -0.1878  0.6534 -0.5750
    8MOL     F914709   3.534   4.234   3.899  0.3453  0.4667  0.2713
    8MOL    C4414710   2.944   4.412   4.970 -0.9693 -0.2781 -0.6283
    8MOL    C4514711   2.922   4.535   4.934  0.5970 -0.2321  0.1952
    8MOL    C4614712   2.856   4.649   5.018  0.5629  0.0241 -0.4794
    8MOL    F1014713   2.787   4.726   4.936 -0.1272 -0.3892 -0.3166
    8MOL    F1114714   2.776   4.606   5.117  0.0331 -0.0536  0.2390
    8MOL     H414715   2.908   4.361   5.058 -1.6019  0.7509  1.5402
    8MOL     H514716   2.978   4.104   4.795 -0.7556 -0.3520 -0.7041
    8MOL     H614717   3.094   3.903   4.864 -0.6486  2.4935 -0.0614
    8MOL     H714718   3.215   4.335   5.069  4.0365  0.7695  2.5886
    8MOL     H814719   3.334   4.136   5.152 -1.5876  0.9150 -0.2937
    8MOL     H914720   3.690   3.776   5.053  0.1848  2.8307 -0.3274
    8MOL    H1014721   3.554   3.482   5.343  1.2394  2.2778  0.4898
    8MOL    H1114722   3.308   3.559   5.300  0.2947  0.7001 -0.3429
    8MOL    H1214723   3.845   3.376   5.398 -2.1749  0.5281 -1.5159
    8MOL    H1314724   3.706   3.368   4.996  0.9267 -1.5447  0.9982
    8MOL    H1414725   3.957   3.157   5.373  2.1662 -1.3852  2.7703
    8MOL     O414726   3.761   3.104   4.842  0.6837  0.2264 -0.3184
    8MOL    H1514727   2.989   4.217   4.631 -4.5013  1.0975  3.8466
    8MOL    H1614728   3.116   4.134   4.446 -2.7213  0.2336 -1.2763
    8MOL    H1714729   3.233   4.571   4.636  0.5397 -1.8740 -0.6358
    8MOL    H1814730   3.264   3.762   4.423 -0.6687  2.4554 -0.1510
    8MOL    H1914731   3.297   3.941   4.256 -0.7373  0.7761  1.0306
    8MOL    H2014732   3.518   3.984   4.707  1.9434  0.1402  0.0917
    8MOL    H2114733   3.550   4.161   4.520  2.4626 -1.7389 -0.9085
    8MOL    H2214734   3.576   4.168   4.148  1.9515  2.1104  2.0108
    8MOL    H2314735   3.342   4.498   4.435  0.0650  0.1301  0.7490
    8MOL    F1214736   2.948   4.732   5.080  0.2166  0.2230  0.2697
    8MOL    C4714737   3.040   4.684   4.765  0.0625  0.4482 -0.2148
    8MOL    H2414738   3.145   4.694   4.795  0.0316 -3.5092 -0.6224
    8MOL    H2514739   2.981   4.768   4.806 -0.6122  0.7623  0.1176
    8MOL    H2614740   3.038   4.684   4.649  0.6403 -1.5630 -1.6032
    8MOL     N114741   3.284   2.494   4.802  0.1027  0.4465  0.0639
    8MOL     N214742   3.327   2.628   4.975 -0.1187  0.3272 -0.3498
    8MOL     C114743   3.387   2.563   4.865  1.1082 -0.0889 -0.2608
    8MOL     C214744   3.377   2.730   5.055 -0.0694  0.4296  0.5059
    8MOL     C314745   3.489   2.806   5.017  0.5758  0.1795  0.7980
    8MOL     C414746   3.535   2.915   5.099  0.0085 -0.4655 -0.7085
    8MOL     C514747   3.464   2.947   5.217 -0.2382  0.5078 -0.1168
    8MOL     C614748   3.362   2.859   5.262 -0.7034  0.0350 -0.1936
    8MOL     C714749   3.317   2.755   5.179 -0.2847  0.4876  0.0656
    8MOL     N314750   3.532   3.025   5.322 -0.1466  0.3594  0.1338
    8MOL     C814751   3.660   2.991   5.365  0.3088  0.1559 -0.5916
    8MOL     C914752   3.684   3.082   5.483  0.7564 -0.0042  0.0966
    8MOL    C1014753   3.577   3.160   5.500  1.0764 -0.5529  0.0387
    8MOL    C1114754   3.471   3.119   5.399  0.0724  0.2810 -0.0849
    8MOL     O114755   3.362   3.168   5.397 -0.2453  0.1702  0.0821
    8MOL    C1214756   3.791   3.085   5.572  0.1295 -0.3819 -0.2798
    8MOL    C1314757   3.784   3.171   5.688  0.6509 -0.2010 -0.3127
    8MOL    C1414758   3.666   3.251   5.705 -0.4777  0.9894  0.0174
    8MOL    C1514759   3.571   3.257   5.601 -0.5303 -0.0700 -0.1476
    8MOL    C1614760   3.945   3.026   5.802 -0.3384 -0.1764  0.0718
    8MOL    C1714761   4.072   2.989   5.743  0.1424  0.3723 -0.2455
    8MOL    C1814762   4.115   2.857   5.743 -0.0719  0.3791 -0.0157
    8MOL    C1914763   3.868   2.913   5.846  0.8534 -0.4866 -0.5258
    8MOL    C2014764   4.042   2.751   5.794  0.1597 -0.4016 -0.6464
    8MOL    C2114765   3.912   2.779   5.840 -0.8317  0.2290  0.3480
    8MOL    C2214766   3.895   3.173   5.794 -0.0546  0.2797  0.1096
    8MOL    C2314767   4.004   3.283   5.759  0.3506  0.1481 -0.4987
    8MOL     F114768   3.957   3.414   5.771  0.5603 -0.2058 -0.5956
    8MOL     F214769   4.043   3.277   5.629  0.1797 -0.4135 -0.0233
    8MOL     F314770   4.123   3.267   5.823 -0.3005 -0.3141 -0.4572
    8MOL    C2414771   3.847   3.201   5.943  0.1002  0.2508 -0.1668
    8MOL     F414772   3.938   3.177   6.040 -0.1316  0.0848 -0.3109
    8MOL     F514773   3.733   3.136   5.985  0.2370  0.3315 -0.2994
    8MOL     F614774   3.812   3.329   5.960 -0.1474 -0.1536  0.3473
    8MOL     O214775   3.744   2.916   5.316  0.4671  0.5794 -0.1253
    8MOL    C2514776   4.243   2.800   5.701 -0.2817 -0.7185 -0.5905
    8MOL     N414777   4.228   2.668   5.719  0.5462 -0.8546  0.2279
    8MOL    C2614778   4.108   2.628   5.774 -0.2574 -0.1453 -0.0726
    8MOL     O314779   4.065   2.515   5.795 -0.3414  0.2055  0.0725
    8MOL    C2714780   3.515   2.533   4.839 -0.8861 -0.2189 -0.6746
    8MOL    C2814781   3.587   2.610   4.756  0.2408  0.2496 -0.2783
    8MOL    C2914782   3.555   2.406   4.873  0.9195  0.4631 -0.1672
    8MOL    C3014783   3.712   2.569   4.711 -0.0894  1.2697 -0.5154
    8MOL    C3114784   3.681   2.365   4.845  0.0593  0.0177  0.3569
    8MOL    C3214785   3.768   2.448   4.762 -0.1324  0.0297  0.1951
    8MOL    C3314786   3.896   2.415   4.738  0.2738 -0.2347  1.0501
    8MOL     N514787   4.004   2.507   4.753 -0.0539  0.4769 -0.3120
    8MOL     N614788   3.942   2.291   4.697  0.5408  0.0913 -0.0253
    8MOL    C3414789   4.119   2.423   4.741  0.5660  0.3567 -0.0076
    8MOL    C3514790   4.079   2.291   4.719  0.6549  0.2409 -0.1176
    8MOL    C3614791   3.860   2.210   4.604  0.0561  0.5332  0.4229
    8MOL     H114792   3.908   2.110   4.600  2.5433  0.7697 -2.4350
    8MOL     H214793   3.837   2.256   4.509 -0.2107 -1.1543  0.5165
    8MOL     H314794   3.756   2.184   4.650 -1.6088 -0.7892  1.0830
    8MOL    C3714795   3.989   2.633   4.817 -0.7768 -0.4782 -0.6605
    8MOL    C3814796   4.043   2.750   4.764  0.1877  0.0798  0.4041
    8MOL    C3914797   4.015   2.872   4.825 -0.9197  0.0589 -0.3219
    8MOL    C4014798   3.927   2.878   4.934 -0.4745  0.1703 -0.4074
    8MOL    C4114799   3.873   2.759   4.990  0.3891 -0.5014 -0.1760
    8MOL    C4214800   3.911   2.639   4.937  0.8010 -0.1802  1.1325
    8MOL    C4314801   4.162   2.161   4.703  0.7568 -0.5874 -0.0938
    8MOL     F714802   4.114   2.067   4.615 -0.1965 -0.3377  0.3865
    8MOL     F814803   4.173   2.095   4.819  0.7898  0.3307  0.3163
    8MOL     F914804   4.283   2.197   4.658 -0.0771  0.4306  0.0094
    8MOL    C4414805   3.196   2.578   4.983 -0.2904 -0.2298 -0.0795
    8MOL    C4514806   3.179   2.489   4.889  0.1667 -0.1118 -0.0920
    8MOL    C4614807   3.071   2.387   4.870  0.4946  0.1122 -0.0178
    8MOL    F1014808   3.022   2.379   4.746  0.1582  0.2360  0.2840
    8MOL    F1114809   3.126   2.263   4.894  0.1282  0.1703 -0.8007
    8MOL     H414810   3.138   2.599   5.074 -1.0368  2.7093  2.9307
    8MOL     H514811   3.534   2.784   4.925 -0.9307  0.5324 -1.9849
    8MOL     H614812   3.618   2.975   5.073  0.8551  0.7176  0.9788
    8MOL     H714813   3.229   2.696   5.211 -3.7793 -0.3032 -5.3536
    8MOL     H814814   3.324   2.877   5.360 -1.2176  3.3509  1.3746
    8MOL     H914815   3.881   3.030   5.555  0.2003  0.4330  0.3362
    8MOL    H1014816   3.660   3.302   5.801  0.6638  1.4730  1.3008
    8MOL    H1114817   3.487   3.323   5.615  0.2117  1.2873 -0.6117
    8MOL    H1214818   3.764   2.929   5.875 -1.7755 -1.6327 -1.0414
    8MOL    H1314819   4.132   3.064   5.698  0.1827  1.0469  2.5171
    8MOL    H1414820   3.841   2.696   5.868 -0.2143 -2.8195  0.7313
    8MOL     O414821   4.332   2.855   5.648  0.4969  0.0880  0.9427
    8MOL    H1514822   3.554   2.712   4.742 -0.6480 -0.2366 -1.2187
    8MOL    H1614823   3.770   2.624   4.643 -1.1095  3.5659  2.3302
    8MOL    H1714824   3.487   2.334   4.929  1.2229  1.2475  2.6737
    8MOL    H1814825   4.059   2.969   4.789  1.2782  4.3523  3.6685
    8MOL    H1914826   4.111   2.753   4.685 -2.5482  0.3348 -2.8175
    8MOL    H2014827   3.813   2.766   5.083  0.2380  2.2695  0.3796
    8MOL    H2114828   3.871   2.549   4.991 -0.4014 -0.6803 -2.1926
    8MOL    H2214829   4.220   2.470   4.755 -0.1807  0.9980 -2.1763
    8MOL    H2314830   3.711   2.268   4.873 -1.8435  1.3360  2.6434
    8MOL    F1214831   2.980   2.417   4.960 -0.3259 -0.0179  0.2320
    8MOL    C4714832   3.286   2.462   4.660  0.3341 -0.4503 -0.2666
    8MOL    H2414833   3.265   2.553   4.607 -0.3400  0.0303  0.7884
    8MOL    H2514834   3.207   2.393   4.634 -1.0198 -0.0231  1.1252
    8MOL    H2614835   3.390   2.429   4.617  1.0464 -0.8690 -0.3527
    8MOL     N114836   4.329   1.792   5.049 -0.0583  0.5209 -0.2935
    8MOL     N214837   4.433   1.971   4.955 -0.5128 -0.3800 -0.5174
    8MOL     C114838   4.371   1.925   5.070  0.0283  0.6437 -0.4421
    8MOL     C214839   4.498   2.089   4.947 -1.1125 -0.5400  0.4050
    8MOL     C314840   4.642   2.090   4.950 -0.1893 -0.4038 -0.5556
    8MOL     C414841   4.706   2.218   4.973 -0.7700  0.2786  0.4833
    8MOL     C514842   4.631   2.331   5.011 -0.6572  0.0834  0.5948
    8MOL     C614843   4.496   2.324   4.991  0.2155 -0.0207  0.0997
    8MOL     C714844   4.427   2.205   4.962  0.9544 -0.4576 -0.1965
    8MOL     N314845   4.698   2.441   5.088  0.5543 -0.3241 -0.7926
    8MOL     C814846   4.675   2.464   5.224  0.6948  0.5290 -0.6149
    8MOL     C914847   4.776   2.561   5.263 -0.9446  0.7277 -0.0109
    8MOL    C1014848   4.858   2.586   5.152  0.4372 -0.3460 -0.6844
    8MOL    C1114849   4.807   2.507   5.038  0.1886  0.1374  0.4001
    8MOL     O114850   4.846   2.504   4.923  0.3162 -0.4360 -0.4594
    8MOL    C1214851   4.794   2.612   5.390 -0.4200 -0.4639 -0.4034
    8MOL    C1314852   4.911   2.688   5.410  0.1773 -0.1926 -0.4383
    8MOL    C1414853   4.998   2.714   5.300  0.0610  0.1872 -0.5152
    8MOL    C1514854   4.970   2.673   5.169 -0.5022 -0.2338 -0.0552
    8MOL    C1614855   4.817   2.807   5.608 -0.4200 -0.5617 -0.6827
    8MOL    C1714856   4.765   2.900   5.520  0.2894 -0.5011  0.5721
    8MOL    C1814857   4.667   2.989   5.566  0.5321 -0.4286 -0.0974
    8MOL    C1914858   4.762   2.792   5.738 -0.0262 -0.6894 -0.5214
    8MOL    C2014859   4.610   2.977   5.689 -0.3922  0.1420 -0.8067
    8MOL    C2114860   4.659   2.879   5.780 -0.0887 -0.3022 -0.0823
    8MOL    C2214861   4.939   2.729   5.557  0.3726 -0.1061 -0.3730
    8MOL    C2314862   4.974   2.590   5.633  0.2727 -0.1768  0.8140
    8MOL     F114863   5.051   2.516   5.554 -0.4339 -0.2249  0.3969
    8MOL     F214864   4.866   2.510   5.670 -0.4803  0.2065  0.0545
    8MOL     F314865   5.034   2.613   5.762  0.0950 -0.0957 -0.1606
    8MOL    C2414866   5.060   2.824   5.575 -0.1745  0.5520 -0.0512
    8MOL     F414867   5.066   2.860   5.710 -0.1708 -0.3642  0.2840
    8MOL     F514868   5.048   2.934   5.497  0.0819  0.4799  0.1879
    8MOL     F614869   5.179   2.764   5.548  0.5736 -0.0832 -0.3771
    8MOL     O214870   4.599   2.401   5.299 -0.0473  0.0061  0.0463
    8MOL    C2514871   4.609   3.114   5.502  0.4804 -0.1836 -0.0720
    8MOL     N414872   4.515   3.173   5.592 -0.2721 -0.3364 -0.2240
    8MOL    C2614873   4.515   3.094   5.702  0.3598 -0.0306 -0.0186
    8MOL     O314874   4.446   3.113   5.800  0.3083  0.0577  0.2508
    8MOL    C2714875   4.412   1.965   5.196 -0.1311  0.0273 -1.2711
    8MOL    C2814876   4.313   2.014   5.281  0.6399 -0.6450 -0.1743
    8MOL    C2914877   4.549   1.953   5.238  0.6641 -0.2630 -0.7495
    8MOL    C3014878   4.342   2.054   5.412 -0.3634  0.2146 -0.5645
    8MOL    C3114879   4.580   1.988   5.372 -0.7352  0.1772  0.5021
    8MOL    C3214880   4.481   2.051   5.457 -0.3354 -0.7210 -0.4910
    8MOL    C3314881   4.520   2.124   5.571 -0.8216 -0.1368  0.4085
    8MOL     N514882   4.561   2.260   5.555  0.3583  0.2677  0.2982
    8MOL     N614883   4.625   2.060   5.642  0.3403  0.1961  0.5925
    8MOL    C3414884   4.696   2.260   5.566 -0.2137  0.9383 -0.2243
    8MOL    C3514885   4.735   2.148   5.627  0.0226 -0.2412  0.1562
    8MOL    C3614886   4.607   1.982   5.766  0.0775  0.0321  0.1107
    8MOL     H114887   4.681   2.027   5.841 -0.1555 -0.8861 -1.1920
    8MOL     H214888   4.630   1.878   5.726  0.5457  1.9696 -1.1648
    8MOL     H314889   4.501   1.974   5.807  0.2110 -2.3012  2.4833
    8MOL    C3714890   4.486   2.367   5.589 -0.2669  0.4476 -0.1069
    8MOL    C3814891   4.364   2.389   5.522 -0.6529  0.4069  1.1642
    8MOL    C3914892   4.285   2.493   5.563  0.5212  0.4224  0.4762
    8MOL    C4014893   4.318   2.565   5.673 -0.4489 -0.4213  0.1023
    8MOL    C4114894   4.435   2.543   5.747 -0.7071  0.0419  0.0141
    8MOL    C4214895   4.514   2.435   5.709  0.2793 -0.8514  0.2918
    8MOL    C4314896   4.878   2.097   5.646 -0.5989  0.0678 -0.0641
    8MOL     F714897   4.904   2.060   5.772  0.4361  0.5713  0.4116
    8MOL     F814898   4.970   2.186   5.614 -0.4509  0.3107  0.4734
    8MOL     F914899   4.896   1.995   5.556 -0.0363  0.7446 -0.1270
    8MOL    C4414900   4.425   1.866   4.866 -0.5939  0.5180 -0.3365
    8MOL    C4514901   4.358   1.765   4.920 -0.1284 -0.6906 -0.1941
    8MOL    C4614902   4.311   1.643   4.846 -0.6576 -0.0539  1.0898
    8MOL    F1014903   4.183   1.589   4.887 -0.3666 -1.0089  0.9815
    8MOL    F1114904   4.309   1.661   4.711  0.1680 -0.3165 -0.0978
    8MOL     H414905   4.460   1.878   4.766 -4.0613  0.7097 -1.6970
    8MOL     H514906   4.689   1.995   4.945  0.3001  3.2903 -0.2885
    8MOL     H614907   4.809   2.225   4.993 -0.7687 -0.7300  0.7819
    8MOL     H714908   4.318   2.214   4.958 -0.0649  2.5608 -1.4347
    8MOL     H814909   4.445   2.412   5.008 -1.7170 -2.6215 -2.2304
    8MOL     H914910   4.723   2.592   5.465 -0.7578 -0.6022 -0.1679
    8MOL    H1014911   5.085   2.774   5.317 -2.5520  1.2854 -0.7746
    8MOL    H1114912   5.041   2.690   5.089 -0.6391  0.5685 -0.3676
    8MOL    H1214913   4.804   2.723   5.806 -1.0009  0.8841 -1.9805
    8MOL    H1314914   4.807   2.915   5.421  1.4966 -1.0629 -4.5340
    8MOL    H1414915   4.610   2.862   5.880 -0.0354  0.9831 -0.7183
    8MOL     O414916   4.630   3.161   5.391  0.0187 -0.2800 -0.1505
    8MOL    H1514917   4.212   2.001   5.245 -3.4147  2.1611 -1.8559
    8MOL    H1614918   4.252   2.076   5.483 -4.0898 -0.4174  1.8407
    8MOL    H1714919   4.622   1.915   5.172 -0.6513 -1.1858 -1.7148
    8MOL    H1814920   4.193   2.518   5.508 -2.0097  1.9009  1.4264
    8MOL    H1914921   4.345   2.338   5.429  0.7018 -0.3745  0.1270
    8MOL    H2014922   4.448   2.608   5.830 -2.6513  4.4868 -0.4103
    8MOL    H2114923   4.612   2.406   5.768  3.6619  0.1842  3.0705
    8MOL    H2214924   4.752   2.336   5.514  0.5570  0.0927  2.8183
    8MOL    H2314925   4.686   1.993   5.391  2.9270 -0.5779  2.2143
    8MOL    F1214926   4.402   1.541   4.856 -0.1146 -0.4087 -0.6942
    8MOL    C4714927   4.199   1.752   5.110 -0.1421  0.0156 -0.6059
    8MOL    H2414928   4.195   1.640   5.121 -0.7959  0.0325 -0.2040
    8MOL    H2514929   4.115   1.778   5.049 -0.8954  1.5112 -0.1452
    8MOL    H2614930   4.187   1.810   5.207  0.7214 -0.1939 -0.4420
    8MOL     N114931   4.029   3.556   6.153  0.1754  0.4521 -0.4215
    8MOL     N214932   3.873   3.720   6.140  0.3668  0.0131  0.4804
    8MOL     C114933   3.968   3.650   6.063 -0.2663 -1.0127 -0.3762
    8MOL     C214934   3.835   3.853   6.135  0.4700  0.7436 -1.2329
    8MOL     C314935   3.893   3.945   6.040  0.1011 -0.1806  0.0932
    8MOL     C414936   3.870   4.085   6.056  0.2656  0.0602  0.0083
    8MOL     C514937   3.795   4.130   6.167  0.5754 -0.3047  0.0428
    8MOL     C614938   3.722   4.037   6.243 -0.1449 -0.3463  0.5172
    8MOL     C714939   3.742   3.898   6.226  0.5480  0.2599  0.4998
    8MOL     N314940   3.819   4.264   6.206  0.3686 -0.4873  0.0113
    8MOL     C814941   3.902   4.292   6.307 -0.1940  0.3280  0.4707
    8MOL     C914942   3.911   4.443   6.311 -1.1149  0.4718 -0.6171
    8MOL    C1014943   3.830   4.492   6.213  1.2383 -0.2360 -0.7891
    8MOL    C1114944   3.760   4.374   6.143  0.8822  0.1703  0.1024
    8MOL     O114945   3.685   4.378   6.044  0.4745 -0.0742 -0.4382
    8MOL    C1214946   3.988   4.528   6.390  0.1039 -0.3665 -0.5025
    8MOL    C1314947   3.983   4.668   6.368  0.3776  0.0084  0.5187
    8MOL    C1414948   3.902   4.721   6.264  0.6637 -0.1340  0.7231
    8MOL    C1514949   3.829   4.632   6.184  0.3533 -0.6587  0.4360
    8MOL    C1614950   4.229   4.691   6.415 -0.3811  0.3077 -0.3322
    8MOL    C1714951   4.259   4.639   6.290  0.6403  0.1924 -0.2876
    8MOL    C1814952   4.386   4.584   6.255  0.3806 -0.0317 -0.9487
    8MOL    C1914953   4.320   4.653   6.519  1.3839  0.8247  0.5149
    8MOL    C2014954   4.473   4.557   6.361 -0.2976 -0.1718 -0.1406
    8MOL    C2114955   4.444   4.590   6.493  0.1595  0.5407 -0.1417
    8MOL    C2214956   4.090   4.756   6.439  0.0700 -0.1681  0.6864
    8MOL    C2314957   4.116   4.895   6.370  0.4858  0.5711 -0.0930
    8MOL     F114958   4.224   4.956   6.424 -0.1278 -0.5847  0.0690
    8MOL     F214959   4.016   4.983   6.384  0.5091  0.2346 -0.5402
    8MOL     F314960   4.138   4.888   6.233 -0.0625 -0.2499  0.4014
    8MOL    C2414961   4.048   4.781   6.588  0.3490  0.4416 -0.0182
    8MOL     F414962   3.926   4.843   6.591 -0.1841  0.6400 -0.0117
    8MOL     F514963   4.131   4.863   6.654 -0.0259 -0.1059 -0.3085
    8MOL     F614964   4.039   4.662   6.655  0.4677 -0.1017  0.1930
    8MOL     O214965   3.963   4.210   6.377 -0.0088  0.3389 -0.2381
    8MOL    C2514966   4.446   4.521   6.138  0.1277 -0.5849 -0.6511
    8MOL     N414967   4.560   4.459   6.174 -0.2780  0.3006 -0.7982
    8MOL    C2614968   4.587   4.474   6.307  0.2574  0.3548 -0.1885
    8MOL     O314969   4.688   4.449   6.367  0.1056  0.3748  0.1426
    8MOL    C2714970   4.004   3.667   5.929 -0.5508 -0.6451  1.7396
    8MOL    C2814971   4.139   3.682   5.903 -0.0682  0.6240  0.0561
    8MOL    C2914972   3.913   3.701   5.824  0.4526 -0.8950  0.1731
    8MOL    C3014973   4.189   3.707   5.775  0.8022  0.1727 -0.5506
    8MOL    C3114974   3.966   3.724   5.693  0.4093 -1.0878  0.6640
    8MOL    C3214975   4.102   3.720   5.671 -0.7898 -1.1933 -0.1844
    8MOL    C3314976   4.150   3.733   5.541 -0.1619  0.3825  0.3265
    8MOL     N514977   4.235   3.638   5.475  0.4252  0.9206 -0.3869
    8MOL     N614978   4.136   3.848   5.458 -0.1396  0.0133 -0.3823
    8MOL    C3414979   4.255   3.696   5.346  0.1563 -0.0543  0.5927
    8MOL    C3514980   4.194   3.812   5.336 -0.5141  0.7307 -0.1837
    8MOL    C3614981   4.030   3.951   5.459 -0.8328  0.1523 -0.1483
    8MOL     H114982   3.943   3.920   5.395  0.1482  0.4243 -0.2725
    8MOL     H214983   4.069   4.049   5.426  1.8892  1.8450  1.1462
    8MOL     H314984   3.997   3.963   5.559 -0.3814 -3.0684  0.6993
    8MOL    C3714985   4.290   3.522   5.516 -0.1366 -0.0975 -0.2284
    8MOL    C3814986   4.237   3.400   5.478  0.4176 -0.1435 -0.2174
    8MOL    C3914987   4.304   3.281   5.514  0.2538  0.1572 -0.0583
    8MOL    C4014988   4.435   3.287   5.564  0.2567  0.3798 -0.6794
    8MOL    C4114989   4.488   3.412   5.607 -0.7585 -0.0669  0.4523
    8MOL    C4214990   4.417   3.529   5.576  0.0679  0.2535 -0.6237
    8MOL    C4314991   4.194   3.903   5.211 -0.0466  0.2125 -0.4684
    8MOL     F714992   4.070   3.942   5.168 -0.0925 -0.5521 -0.2964
    8MOL     F814993   4.264   3.837   5.114 -0.4922 -0.0959 -0.2369
    8MOL     F914994   4.262   4.018   5.234  0.0691  0.1677  0.0150
    8MOL    C4414995   3.865   3.643   6.259 -0.0823 -0.2888 -0.2813
    8MOL    C4514996   3.958   3.549   6.269 -0.3422 -0.5983  0.7380
    8MOL    C4614997   3.976   3.438   6.374  0.3575  0.2319  0.0142
    8MOL    F1014998   4.096   3.375   6.369  0.5549  0.1969 -0.5341
    8MOL    F1114999   3.956   3.488   6.500 -0.4542  0.0072 -0.5262
    8MOL     H415000   3.789   3.658   6.332  0.7140 -2.1350 -0.1741
    8MOL     H515001   3.962   3.914   5.966 -1.3196 -2.1999 -0.4202
    8MOL     H615002   3.916   4.160   5.985 -1.0740  3.7813 -0.5258
    8MOL     H715003   3.686   3.827   6.289 -0.2479  0.9094  3.3110
    8MOL     H815004   3.664   4.071   6.328  0.8875 -1.2918 -2.1581
    8MOL     H915005   4.053   4.486   6.466 -0.1837 -1.1335 -0.0388
    8MOL    H1015006   3.881   4.827   6.248  0.8522 -0.3707  1.7044
    8MOL    H1115007   3.757   4.676   6.111 -0.1193  0.3901 -1.8860
    8MOL    H1215008   4.294   4.667   6.621 -2.0730 -0.9061 -2.4662
    8MOL    H1315009   4.182   4.652   6.214  0.9138 -0.5845 -1.0577
    8MOL    H1415010   4.504   4.540   6.568 -1.3259  0.3510  1.7970
    8MOL     O415011   4.388   4.521   6.032 -0.6498  0.5262  0.1059
    8MOL    H1515012   4.203   3.671   5.983 -0.9235  0.2900 -3.7055
    8MOL    H1615013   4.292   3.698   5.759  1.1092 -0.3692  1.5698
    8MOL    H1715014   3.805   3.704   5.843 -1.6558 -1.9127 -0.8343
    8MOL    H1815015   4.265   3.187   5.480  0.7245 -1.1901 -0.7305
    8MOL    H1915016   4.146   3.394   5.419  1.7475 -0.3899 -3.6090
    8MOL    H2015017   4.588   3.423   5.653  1.8131  2.0265 -2.8642
    8MOL    H2115018   4.467   3.623   5.588 -0.6205  2.5299  1.8935
    8MOL    H2215019   4.302   3.635   5.266  0.8712  0.4313 -3.2511
    8MOL    H2315020   3.897   3.744   5.609  0.6692 -0.0669  3.7937
    8MOL    F1215021   3.871   3.351   6.370  0.1037  0.1632  0.3152
    8MOL    C4715022   4.094   3.439   6.103  0.7782  0.3907 -0.0485
    8MOL    H2415023   4.024   3.352   6.116 -2.1562 -1.6605 -0.0757
    8MOL    H2515024   4.185   3.424   6.169  1.0023 -0.1441  1.3579
    8MOL    H2615025   4.113   3.447   6.000 -0.6677  0.0616  0.3140
    8MOL     N115026   5.134   3.504   6.124 -0.5136  0.0003 -0.4629
    8MOL     N215027   4.930   3.532   6.236 -0.0414  0.4137 -0.1636
    8MOL     C115028   5.022   3.588   6.146  0.5234  0.0440 -0.2429
    8MOL     C215029   4.796   3.567   6.261 -0.5394  0.4414  0.2246
    8MOL     C315030   4.751   3.698   6.252 -0.2617 -0.4679 -0.8003
    8MOL     C415031   4.611   3.723   6.259 -0.2864  1.0792  0.0933
    8MOL     C515032   4.520   3.613   6.273 -0.4184 -0.4106 -0.6805
    8MOL     C615033   4.566   3.480   6.280  0.2610 -0.3887 -0.1519
    8MOL     C715034   4.702   3.463   6.276 -0.7138 -0.3305  0.3932
    8MOL     N315035   4.384   3.630   6.310 -0.3340  0.2075  0.4492
    8MOL     C815036   4.340   3.582   6.435 -0.1946  0.1240  0.2535
    8MOL     C915037   4.224   3.665   6.468 -0.4094 -0.3339 -1.1262
    8MOL    C1015038   4.196   3.757   6.367  0.4341  0.2202 -0.1619
    8MOL    C1115039   4.298   3.730   6.261 -0.2771 -0.0528  0.4937
    8MOL     O115040   4.307   3.764   6.144 -0.3869  0.7784  0.0794
    8MOL    C1215041   4.164   3.678   6.593  0.1786 -0.2455 -0.0871
    8MOL    C1315042   4.088   3.796   6.621  0.0675 -1.0041  0.0337
    8MOL    C1415043   4.048   3.881   6.511 -1.2211  0.0229  0.2735
    8MOL    C1515044   4.106   3.859   6.384 -0.0421  0.4784  0.2294
    8MOL    C1615045   4.202   3.807   6.844 -0.8380 -0.2778  0.3973
    8MOL    C1715046   4.316   3.835   6.768  0.3684  0.8503 -0.1642
    8MOL    C1815047   4.441   3.799   6.822  0.1456 -0.1782 -0.4463
    8MOL    C1915048   4.216   3.748   6.977 -0.5671  0.3773 -0.3042
    8MOL    C2015049   4.455   3.742   6.948 -0.4676 -0.5108  0.2159
    8MOL    C2115050   4.344   3.715   7.025  0.5465 -0.2514 -0.2699
    8MOL    C2215051   4.070   3.831   6.768 -0.5147 -0.4647 -0.3455
    8MOL    C2315052   4.022   3.979   6.790 -0.3881  0.6733  0.0483
    8MOL     F115053   3.894   4.001   6.766 -0.0607 -0.4774  0.2645
    8MOL     F215054   4.105   4.055   6.709 -0.1702  0.3694  0.0626
    8MOL     F315055   4.043   4.010   6.915  0.0053  0.1601  0.0727
    8MOL    C2415056   3.957   3.736   6.808  0.3415 -0.3416  0.2452
    8MOL     F415057   4.005   3.610   6.801 -0.3731 -0.3288  0.1865
    8MOL     F515058   3.853   3.743   6.723 -0.3018  0.1111 -1.0506
    8MOL     F615059   3.907   3.763   6.933 -0.1607  0.1348 -0.1722
    8MOL     O215060   4.393   3.505   6.513 -0.6382  0.4224  0.1249
    8MOL    C2515061   4.563   3.769   6.750 -0.4416  0.0492  0.0867
    8MOL     N415062   4.645   3.699   6.834 -0.1100  0.4179 -0.2104
    8MOL    C2615063   4.587   3.674   6.959  0.3072  0.3612  0.2745
    8MOL     O315064   4.636   3.606   7.045  0.3273 -0.0671 -0.0351
    8MOL    C2715065   5.015   3.712   6.086  0.0561 -0.6835 -0.2120
    8MOL    C2815066   4.915   3.738   5.992 -0.4079 -0.3787  0.1097
    8MOL    C2915067   5.106   3.822   6.113  0.5008 -0.5667 -0.0422
    8MOL    C3015068   4.891   3.859   5.933  0.7962  0.8333 -0.1890
    8MOL    C3115069   5.092   3.941   6.035 -0.8778  0.0403 -0.0036
    8MOL    C3215070   4.989   3.961   5.944  0.8038  0.0944 -0.1271
    8MOL    C3315071   4.987   4.059   5.851 -0.3959  0.3862  0.1295
    8MOL     N515072   4.892   4.162   5.831 -0.0747 -0.2861 -0.1928
    8MOL     N615073   5.068   4.052   5.726  0.5385  0.0929  0.2767
    8MOL    C3415074   4.894   4.193   5.695  0.1059  0.3704 -0.1823
    8MOL    C3515075   4.997   4.136   5.634  0.0466  0.3542 -0.2267
    8MOL    C3615076   5.195   3.975   5.708  0.5366 -0.6448 -0.3157
    8MOL     H115077   5.197   3.941   5.600 -0.1059 -1.2245 -0.7881
    8MOL     H215078   5.193   3.887   5.774 -0.7463  0.7511 -1.3245
    8MOL     H315079   5.288   4.031   5.743  1.6804  0.8110  1.4966
    8MOL    C3715080   4.827   4.239   5.926 -0.2838  0.2189 -0.0478
    8MOL    C3815081   4.795   4.186   6.051 -0.5659 -0.8851  0.2542
    8MOL    C3915082   4.702   4.259   6.127 -0.7609  0.4168  0.1277
    8MOL    C4015083   4.640   4.377   6.088  0.0758 -0.2370 -0.0480
    8MOL    C4115084   4.674   4.428   5.958  0.8957  0.3662 -0.0908
    8MOL    C4215085   4.769   4.367   5.884 -0.2293 -0.3381  0.3210
    8MOL    C4315086   5.030   4.148   5.489  0.2106 -0.3968 -0.4482
    8MOL     F715087   5.107   4.049   5.438  0.4956 -0.2089  0.4276
    8MOL     F815088   5.098   4.270   5.466 -0.0502  0.3738  0.2973
    8MOL     F915089   4.917   4.142   5.419  0.1635  0.0485 -0.2164
    8MOL    C4415090   4.998   3.422   6.283  0.5052 -0.4467  0.4525
    8MOL    C4515091   5.108   3.400   6.211  0.8675 -0.2095  0.0839
    8MOL    C4615092   5.208   3.287   6.230  0.4831  0.4235  0.4085
    8MOL    F1015093   5.329   3.300   6.157  0.3796  0.1512  0.3682
    8MOL    F1115094   5.243   3.266   6.360 -0.2266  0.1349  0.1646
    8MOL     H415095   4.956   3.365   6.368 -2.2441 -3.1782  0.9212
    8MOL     H515096   4.826   3.774   6.233 -1.1050  0.1912 -0.7015
    8MOL     H615097   4.583   3.826   6.250  3.6563  0.7291  0.3197
    8MOL     H715098   4.746   3.370   6.297  0.4790  2.2360  0.0344
    8MOL     H815099   4.492   3.397   6.300  0.8451 -0.5073 -0.8303
    8MOL     H915100   4.214   3.622   6.669  1.2098 -1.4834  1.7409
    8MOL    H1015101   3.971   3.956   6.528  0.6710 -2.6242 -0.7011
    8MOL    H1115102   4.087   3.932   6.309 -0.9297 -0.1356  0.3102
    8MOL    H1215103   4.129   3.735   7.041 -0.9729 -0.4397  1.3650
    8MOL    H1315104   4.309   3.886   6.671 -2.0791 -0.3072 -0.8889
    8MOL    H1415105   4.360   3.665   7.114 -1.2051 -1.1854 -0.7125
    8MOL     O415106   4.587   3.792   6.633  0.1071  0.1284  1.0585
    8MOL    H1515107   4.833   3.662   5.982 -0.4591 -1.2667 -2.1136
    8MOL    H1615108   4.808   3.860   5.870  1.7243 -0.0401  2.5759
    8MOL    H1715109   5.189   3.810   6.186  1.4738 -1.7011  0.2880
    8MOL    H1815110   4.665   4.207   6.214  2.6650  0.7525  0.4897
    8MOL    H1915111   4.831   4.090   6.084  1.9801 -1.3895  2.5524
    8MOL    H2015112   4.634   4.523   5.924 -0.7242 -1.1442 -1.2119
    8MOL    H2115113   4.778   4.417   5.786 -1.2610  0.4971 -1.4945
    8MOL    H2215114   4.827   4.259   5.646 -2.0144 -0.0145 -0.4961
    8MOL    H2315115   5.175   4.005   6.038  2.3909 -3.5722 -0.9253
    8MOL    F1215116   5.159   3.175   6.179 -0.0384  0.0970  0.1395
    8MOL    C4715117   5.146   3.466   5.982  0.6882  0.3125  0.4003
    8MOL    H2415118   5.073   3.387   5.956 -1.6961 -0.5417  0.8211
    8MOL    H2515119   5.247   3.425   5.972 -1.7163 -0.6250  0.0256
    8MOL    H2615120   5.137   3.553   5.925  0.5385 -1.1074  1.4444
    8MOL     N115121   5.161   3.199   7.266  0.5262  0.2216  0.3148
    8MOL     N215122   5.045   3.081   7.108 -0.2667 -0.2852 -0.2078
    8MOL     C115123   5.120   3.198   7.128 -0.1212 -0.3643  0.6930
    8MOL     C215124   4.976   3.049   6.995  0.3461  0.2330 -0.1129
    8MOL     C315125   5.039   2.995   6.885  0.1882  0.1037  0.2420
    8MOL     C415126   4.973   2.972   6.766  0.5369 -0.4269  0.1661
    8MOL     C515127   4.841   3.009   6.753 -0.3260  0.4846  0.3001
    8MOL     C615128   4.773   3.076   6.861 -0.2072 -0.3090  0.1835
    8MOL     C715129   4.840   3.090   6.984 -0.0318 -0.2222  0.1133
    8MOL     N315130   4.775   2.997   6.629 -0.0599  0.4775  0.5277
    8MOL     C815131   4.702   3.096   6.566 -0.5821 -0.1412 -0.4007
    8MOL     C915132   4.628   3.028   6.459 -0.4649 -0.6006  0.6390
    8MOL    C1015133   4.674   2.899   6.451  0.5150 -0.5713 -0.0462
    8MOL    C1115134   4.770   2.881   6.561  0.1159 -0.6278 -0.0924
    8MOL     O115135   4.829   2.774   6.581 -0.0191 -0.1963  0.2099
    8MOL    C1215136   4.536   3.074   6.359 -0.1550  0.0801 -0.1227
    8MOL    C1315137   4.481   2.987   6.260  0.0911 -0.2093 -0.0548
    8MOL    C1415138   4.542   2.856   6.247 -0.2523 -1.3139 -0.7319
    8MOL    C1515139   4.634   2.812   6.353  0.0035  0.2809 -0.2384
    8MOL    C1615140   4.447   3.159   6.089  0.5029  0.0422 -0.5181
    8MOL    C1715141   4.588   3.158   6.066 -0.0839 -0.3322  0.1177
    8MOL    C1815142   4.642   3.271   6.001  0.1526  0.0897  0.4333
    8MOL    C1915143   4.368   3.267   6.033  0.3038  0.8591  0.1230
    8MOL    C2015144   4.564   3.380   5.962 -0.2707  0.0199 -0.1247
    8MOL    C2115145   4.424   3.385   5.973  0.2235  0.4624 -0.2770
    8MOL    C2215146   4.378   3.042   6.165  0.2503  0.2207  1.2098
    8MOL    C2315147   4.327   2.931   6.063 -1.1790 -0.0228  0.0681
    8MOL     F115148   4.225   2.968   5.993  0.2531 -0.4030  0.5122
    8MOL     F215149   4.284   2.818   6.129  0.3062  0.4453 -0.2650
    8MOL     F315150   4.411   2.886   5.971 -0.1590  0.5356  0.0426
    8MOL    C2415151   4.258   3.099   6.253  0.4455 -0.0420  0.8903
    8MOL     F415152   4.217   3.010   6.351 -0.1670  1.0827  0.2925
    8MOL     F515153   4.151   3.140   6.178 -0.0722 -0.2854  0.1334
    8MOL     F615154   4.291   3.216   6.318  0.1442  0.1315  0.3321
    8MOL     O215155   4.699   3.218   6.594  0.2006  0.2500 -0.2175
    8MOL    C2515156   4.784   3.307   5.986 -0.2749 -0.0470 -0.5734
    8MOL     N415157   4.785   3.441   5.941 -0.4342 -0.6824  0.4859
    8MOL    C2615158   4.657   3.488   5.928 -0.6877 -0.1203 -0.8508
    8MOL     O315159   4.644   3.608   5.907  0.2020 -0.0227 -0.2568
    8MOL    C2715160   5.163   3.285   7.031  0.0623  0.5254  0.5932
    8MOL    C2815161   5.220   3.221   6.922 -0.1368 -0.5080 -0.3826
    8MOL    C2915162   5.143   3.423   7.030  0.1915  0.0510 -0.3371
    8MOL    C3015163   5.268   3.300   6.819 -0.7638  0.3076 -1.0451
    8MOL    C3115164   5.191   3.504   6.929 -0.7847  0.3282 -0.3974
    8MOL    C3215165   5.252   3.438   6.820  0.7971 -0.6528  0.6210
    8MOL    C3315166   5.256   3.500   6.691  0.4854 -0.1962  0.1408
    8MOL     N515167   5.141   3.536   6.617  0.4057 -0.4917 -0.5586
    8MOL     N615168   5.362   3.498   6.601 -0.5933 -0.4348  0.3730
    8MOL    C3415169   5.188   3.567   6.490  0.1336 -0.1563 -0.4715
    8MOL    C3515170   5.320   3.559   6.479  0.5624  0.7031 -0.5250
    8MOL    C3615171   5.501   3.480   6.629  0.7635 -0.2570  0.0025
    8MOL     H115172   5.563   3.452   6.538  3.5768 -1.4121  2.6523
    8MOL     H215173   5.507   3.404   6.711  3.2904  1.0142  0.3838
    8MOL     H315174   5.550   3.571   6.682  1.0971 -1.2456  1.1839
    8MOL    C3715175   5.019   3.575   6.665  0.0677 -0.7332 -0.0491
    8MOL    C3815176   5.013   3.698   6.737  0.1001  0.3819  0.9956
    8MOL    C3915177   4.885   3.736   6.788  0.1386  0.0001 -0.0005
    8MOL    C4015178   4.773   3.646   6.790  0.5447 -0.2910 -0.6835
    8MOL    C4115179   4.788   3.530   6.711 -1.1195  0.2554 -0.2183
    8MOL    C4215180   4.910   3.488   6.651 -0.1116 -0.8004  0.0005
    8MOL    C4315181   5.396   3.641   6.378  0.1836 -0.0007  0.0255
    8MOL     F715182   5.528   3.618   6.389  0.2510  0.6085  0.2363
    8MOL     F815183   5.372   3.775   6.396  0.4057 -0.4651 -0.0051
    8MOL     F915184   5.368   3.613   6.254  0.2793 -0.2582 -0.9477
    8MOL    C4415185   5.047   3.011   7.233 -0.1229 -0.7477  0.5629
    8MOL    C4515186   5.102   3.085   7.327  0.0548  0.3899  0.1238
    8MOL    C4615187   5.102   3.075   7.476 -0.2332  0.1268 -0.0972
    8MOL    F1015188   4.985   3.121   7.526  0.2197 -0.5770 -0.0923
    8MOL    F1115189   5.113   2.942   7.516  0.6888  0.1053  0.1930
    8MOL     H415190   4.985   2.919   7.247 -0.5007  1.6665 -3.4657
    8MOL     H515191   5.136   2.967   6.901 -2.8567 -0.3100  5.1778
    8MOL     H615192   5.035   2.932   6.684 -1.5047 -0.5111 -0.4152
    8MOL     H715193   4.788   3.147   7.069  0.0638 -2.1193  1.0505
    8MOL     H815194   4.675   3.101   6.854  2.1475 -2.0680  2.4365
    8MOL     H915195   4.502   3.179   6.378  1.2709  3.0826 -0.0090
    8MOL    H1015196   4.512   2.791   6.170 -2.5771  0.7625 -0.6212
    8MOL    H1115197   4.652   2.710   6.354  0.5155  2.7037  2.1256
    8MOL    H1215198   4.264   3.269   6.044  2.6746 -2.6111 -0.2231
    8MOL    H1315199   4.659   3.092   6.104  0.4985  0.9823 -0.5418
    8MOL    H1415200   4.353   3.467   5.954 -0.8103 -2.2223  0.5519
    8MOL     O415201   4.886   3.241   6.004 -0.9753  0.1329 -0.5914
    8MOL    H1515202   5.236   3.112   6.928 -0.2311  0.8349 -0.7442
    8MOL    H1615203   5.304   3.245   6.728  0.0349 -3.4714  1.1274
    8MOL    H1715204   5.096   3.471   7.115 -0.9313 -0.7696 -0.8623
    8MOL    H1815205   4.898   3.829   6.843  0.2808  1.9027  1.7564
    8MOL    H1915206   5.107   3.754   6.744  1.1414  0.0832 -2.5132
    8MOL    H2015207   4.702   3.465   6.704 -1.3263  1.7663  0.3916
    8MOL    H2115208   4.910   3.394   6.592  1.4048 -0.3257  2.5601
    8MOL    H2215209   5.126   3.626   6.425  1.3881 -0.7638 -0.3092
    8MOL    H2315210   5.172   3.606   6.921  2.7527 -2.8120 -1.5866
    8MOL    F1215211   5.197   3.145   7.541  0.0756 -0.2949 -0.0330
    8MOL    C4715212   5.195   3.322   7.333 -0.5827  0.4528  0.5983
    8MOL    H2415213   5.285   3.312   7.391 -0.5777  1.0649  0.1707
    8MOL    H2515214   5.110   3.347   7.400 -2.7631  0.2074 -2.4754
    8MOL    H2615215   5.215   3.399   7.258 -0.5946  1.1082  0.4068
    8MOL    H2715216   4.863   3.508   5.934 -3.1179  1.5276  0.9972
    9MOL     N115217   5.923   1.416   4.809 -0.0518 -0.5160 -0.1836
    9MOL     N215218   5.882   1.310   4.607  0.0429  0.4638 -0.2903
    9MOL     C115219   5.830   1.338   4.738  0.1175  0.2947 -0.0610
    9MOL     C215220   5.834   1.210   4.525 -0.1921  0.3145 -0.5586
    9MOL     C315221   5.755   1.250   4.416  0.3261  0.1968  0.1373
    9MOL     C415222   5.682   1.155   4.346 -0.5659 -0.2715 -0.3583
    9MOL     C515223   5.679   1.021   4.380  0.2078  0.2652  0.3464
    9MOL     C615224   5.752   0.984   4.498  0.2434 -0.1957 -0.1243
    9MOL     C715225   5.834   1.076   4.564 -0.3754 -0.3797 -0.1737
    9MOL     N315226   5.610   0.925   4.300  0.3351  0.2881  0.8077
    9MOL     C815227   5.641   0.907   4.164  0.1184 -0.1777 -0.1016
    9MOL     C915228   5.559   0.800   4.118 -0.9227 -0.0064  0.3316
    9MOL    C1015229   5.486   0.750   4.225 -0.7136  0.1294 -0.0567
    9MOL    C1115230   5.528   0.823   4.348  0.6822  0.3480 -0.0313
    9MOL     O115231   5.485   0.809   4.460 -0.1404 -0.4373  0.6946
    9MOL    C1215232   5.530   0.761   3.990  0.4250 -0.4786 -0.3632
    9MOL    C1315233   5.439   0.654   3.963 -0.1265 -0.3916  0.7765
    9MOL    C1415234   5.370   0.613   4.075  0.1090  0.4839 -0.6688
    9MOL    C1515235   5.396   0.648   4.208  0.2424  0.2575 -0.1471
    9MOL    C1615236   5.339   0.462   3.821  0.4638  0.2789 -0.1701
    9MOL    C1715237   5.405   0.355   3.760  0.0526  0.0388 -0.2177
    9MOL    C1815238   5.347   0.227   3.755 -0.3385  0.2795 -0.0326
    9MOL    C1915239   5.206   0.437   3.868 -0.1638  0.5677  0.3522
    9MOL    C2015240   5.222   0.201   3.809  0.8440  0.0302 -0.4429
    9MOL    C2115241   5.150   0.309   3.862  0.6340 -0.3775 -0.5294
    9MOL    C2215242   5.402   0.611   3.819 -0.8201  0.3108 -0.1080
    9MOL    C2315243   5.297   0.708   3.745  0.2882  0.2032 -0.1864
    9MOL     F115244   5.257   0.652   3.628 -0.0103 -0.4941 -0.2707
    9MOL     F215245   5.334   0.838   3.723  0.0890  0.1450 -0.2548
    9MOL     F315246   5.189   0.725   3.819 -0.1601  0.8467 -0.1544
    9MOL    C2415247   5.535   0.607   3.735  0.4255 -0.6804  0.1247
    9MOL     F415248   5.522   0.548   3.610 -0.1246  0.3443  0.2316
    9MOL     F515249   5.641   0.545   3.788 -0.2612 -0.3971  0.4161
    9MOL     F615250   5.586   0.728   3.700 -0.1742 -1.0222  0.0917
    9MOL     O215251   5.726   0.966   4.101 -0.2867  0.4848  0.4874
    9MOL    C2515252   5.394   0.102   3.691  0.5614 -0.2554  0.6361
    9MOL     N415253   5.292   0.008   3.723  0.2871 -0.2462 -0.0034
    9MOL    C2615254   5.185   0.063   3.796 -0.4242 -0.5920 -0.3295
    9MOL     O315255   5.087   0.012   3.841  0.4691 -0.2611 -0.0682
    9MOL    C2715256   5.700   1.296   4.776  0.3324  0.2824 -0.2628
    9MOL    C2815257   5.589   1.331   4.697  0.0589  0.5792 -0.7005
    9MOL    C2915258   5.678   1.219   4.887  0.8360  0.3846 -0.2260
    9MOL    C3015259   5.460   1.274   4.715 -0.1429 -0.6112  0.6832
    9MOL    C3115260   5.552   1.154   4.907 -0.9906  0.4565  0.5335
    9MOL    C3215261   5.447   1.181   4.821 -0.5585  0.3131  0.0129
    9MOL    C3315262   5.327   1.100   4.836  0.6897  0.9038  0.3180
    9MOL     N515263   5.197   1.161   4.842 -0.0153  0.6554  1.0636
    9MOL     N615264   5.301   0.961   4.813  0.4183  0.1187  0.0990
    9MOL    C3415265   5.104   1.054   4.841 -0.3829 -0.5597 -0.1198
    9MOL    C3515266   5.169   0.936   4.829 -0.2021  0.1650 -0.1002
    9MOL    C3615267   5.397   0.879   4.739 -0.7651  0.2702 -0.1706
    9MOL     H115268   5.417   0.785   4.790  1.7551  1.1396 -0.9900
    9MOL     H215269   5.487   0.932   4.725 -3.2986  2.9295  3.6496
    9MOL     H315270   5.354   0.866   4.638  2.2467  1.9136 -0.1527
    9MOL    C3715271   5.172   1.299   4.848 -0.9910 -0.1144  0.4781
    9MOL    C3815272   5.243   1.378   4.949  0.0790 -0.2671 -0.4644
    9MOL    C3915273   5.247   1.522   4.941 -0.0290 -0.3903  0.3919
    9MOL    C4015274   5.175   1.578   4.834 -0.2911 -0.3017  0.2568
    9MOL    C4115275   5.094   1.510   4.746 -0.3865  0.0420  0.3148
    9MOL    C4215276   5.092   1.368   4.753  0.3108  0.0401 -0.7031
    9MOL    C4315277   5.116   0.790   4.841 -0.1441  0.1822  0.5770
    9MOL     F715278   5.107   0.719   4.724  0.3196  0.1995  0.1787
    9MOL     F815279   4.991   0.788   4.892  0.0664  0.3026  0.3960
    9MOL     F915280   5.199   0.711   4.919 -0.0827  0.2700 -0.3675
    9MOL    C4415281   5.996   1.388   4.599 -0.5264 -0.4848 -0.5085
    9MOL    C4515282   6.020   1.455   4.713 -0.9421  0.7868  0.0830
    9MOL    C4615283   6.143   1.545   4.749 -0.4342 -0.3658 -0.6578
    9MOL    F1015284   6.128   1.669   4.706 -0.2404 -0.4792  0.1632
    9MOL    F1115285   6.158   1.549   4.883  0.3374  0.5698 -0.2188
    9MOL     H415286   6.052   1.388   4.505  0.8461  1.1381  1.5839
    9MOL     H515287   5.759   1.347   4.376  0.4261 -0.6127  3.0929
    9MOL     H615288   5.634   1.192   4.258  2.3798 -1.3386 -1.7596
    9MOL     H715289   5.873   1.045   4.661  0.8019 -3.5292 -1.4294
    9MOL     H815290   5.744   0.883   4.538  1.6334 -0.7933  2.4828
    9MOL     H915291   5.585   0.811   3.912  0.0482  0.5369 -2.2938
    9MOL    H1015292   5.299   0.538   4.066  0.4439 -0.3154  1.1400
    9MOL    H1115293   5.361   0.594   4.299 -0.5599  3.0275  1.5035
    9MOL    H1215294   5.147   0.512   3.918 -0.1800 -0.3823  0.0702
    9MOL    H1315295   5.512   0.348   3.721 -0.2838  0.8971 -0.1239
    9MOL    H1415296   5.050   0.290   3.897 -0.8512  0.7412 -0.8192
    9MOL     O415297   5.494   0.083   3.630  0.4799  0.4215 -0.3260
    9MOL    H1515298   5.605   1.411   4.620 -0.1347  0.5289 -0.4668
    9MOL    H1615299   5.378   1.308   4.653 -0.9214  1.1767  0.6652
    9MOL    H1715300   5.757   1.184   4.948 -1.1686 -1.2397  0.4250
    9MOL    H1815301   5.310   1.594   5.001 -1.1094  1.5438 -1.2600
    9MOL    H1915302   5.175   1.686   4.824  3.7039 -3.5777  1.1347
    9MOL    H2015303   5.296   1.324   5.031 -1.0139 -0.3643 -2.1565
    9MOL    H2115304   5.049   1.565   4.666 -1.6154 -2.2402  0.5315
    9MOL    H2215305   5.046   1.311   4.683  1.6170  1.9553  3.9190
    9MOL    H2315306   5.002   1.077   4.857  0.5217  1.7242 -0.1789
    9MOL    H2415307   5.546   1.085   4.985 -1.4918  1.2102 -0.6777
    9MOL    F1215308   6.248   1.484   4.698  0.7494  0.4250 -0.2467
    9MOL    C4715309   5.911   1.464   4.948  0.2451  0.5535  0.3644
    9MOL    H2515310   5.920   1.572   4.938 -0.3795 -1.0677  0.2276
    9MOL    H2615311   5.984   1.413   5.013  0.8107  0.3428 -0.8072
    9MOL    H2715312   5.808   1.450   4.982  2.6264  0.8439  0.2077
    9MOL     N115313   4.572  -0.577   3.808 -0.1618 -0.3230  0.0559
    9MOL     N215314   4.588  -0.766   3.676 -0.3157  0.1921  0.7709
    9MOL     C115315   4.663  -0.648   3.728  0.0826  0.8999  0.1669
    9MOL     C215316   4.636  -0.852   3.583 -0.0701 -0.1093 -0.1409
    9MOL     C315317   4.699  -0.794   3.470  0.0089 -0.2068  0.0100
    9MOL     C415318   4.729  -0.876   3.363  0.8863 -1.0229  0.3944
    9MOL     C515319   4.712  -1.014   3.374 -1.0326 -0.0788  0.1300
    9MOL     C615320   4.665  -1.070   3.492  0.7264 -0.8774  0.1548
    9MOL     C715321   4.622  -0.994   3.596 -0.4135  0.7036 -0.0275
    9MOL     N315322   4.743  -1.101   3.269  0.3578  0.1658 -0.5532
    9MOL     C815323   4.870  -1.118   3.229  0.0094 -0.7402  0.5084
    9MOL     C915324   4.873  -1.225   3.130 -0.3110 -0.0831 -0.3338
    9MOL    C1015325   4.745  -1.273   3.121  0.2200 -0.1700 -0.6767
    9MOL    C1115326   4.655  -1.188   3.202 -0.3630  0.0909  0.5591
    9MOL     O115327   4.534  -1.190   3.204 -0.3905 -0.4809 -0.2792
    9MOL    C1215328   4.979  -1.288   3.058 -0.0793  0.5535 -0.5391
    9MOL    C1315329   4.955  -1.414   2.994 -0.5615 -1.0169 -0.1497
    9MOL    C1415330   4.821  -1.468   3.004 -0.6242 -0.4721 -0.7426
    9MOL    C1515331   4.718  -1.396   3.067 -0.8546 -0.0092  1.3788
    9MOL    C1615332   5.188  -1.505   3.046  0.0448 -0.3827 -0.1115
    9MOL    C1715333   5.164  -1.521   3.189  0.4805 -0.0780  0.2485
    9MOL    C1815334   5.268  -1.528   3.275 -0.2378  0.0764  0.1665
    9MOL    C1915335   5.324  -1.500   3.004  0.0749 -0.4026  0.1124
    9MOL    C2015336   5.398  -1.524   3.234 -0.6392 -0.5512 -0.5169
    9MOL    C2115337   5.430  -1.509   3.099 -0.4835 -0.2402 -1.1826
    9MOL    C2215338   5.079  -1.485   2.941 -0.0436 -0.2151  0.7603
    9MOL    C2315339   5.045  -1.631   2.896  0.6386 -0.2776  0.4551
    9MOL     F115340   5.145  -1.702   2.841  0.7005  0.3605 -0.8809
    9MOL     F215341   4.954  -1.627   2.796 -0.2734  0.2933 -0.8177
    9MOL     F315342   5.000  -1.710   2.992 -0.1105 -0.0397  0.1175
    9MOL    C2415343   5.129  -1.403   2.814  0.6236  0.4810  0.0214
    9MOL     F415344   5.023  -1.360   2.743 -0.6186 -0.0122 -0.3692
    9MOL     F515345   5.204  -1.480   2.732  0.3841  0.2190  0.5946
    9MOL     F615346   5.207  -1.294   2.841  0.4289  0.3619  0.4849
    9MOL     O215347   4.965  -1.064   3.276 -0.7105 -0.2058 -0.2044
    9MOL    C2515348   5.267  -1.566   3.420 -0.9128  0.3907 -0.0698
    9MOL     N415349   5.394  -1.551   3.467 -0.6350  0.2380 -0.3960
    9MOL    C2615350   5.483  -1.540   3.361 -0.1500 -1.2139  0.0201
    9MOL     O315351   5.607  -1.542   3.361 -0.8048  0.0812 -1.0619
    9MOL    C2715352   4.798  -0.622   3.707 -0.0263  0.1988  0.1315
    9MOL    C2815353   4.828  -0.521   3.616 -0.2231 -0.7208 -0.0515
    9MOL    C2915354   4.900  -0.716   3.744 -0.0024 -0.7703  0.0368
    9MOL    C3015355   4.955  -0.502   3.567 -0.2767  0.6253  0.0573
    9MOL    C3115356   5.030  -0.699   3.683 -0.0463 -0.4610  0.5752
    9MOL    C3215357   5.059  -0.592   3.597  0.2860  0.5150  0.4955
    9MOL    C3315358   5.160  -0.605   3.513  0.2438 -0.0873 -0.6865
    9MOL     N515359   5.258  -0.504   3.490 -0.3769  0.3150 -0.1040
    9MOL     N615360   5.171  -0.702   3.413  0.2731  0.3916  0.2103
    9MOL    C3415361   5.329  -0.551   3.377 -1.1066 -0.0974 -0.3950
    9MOL    C3515362   5.284  -0.666   3.334 -0.1019 -0.2403  0.6228
    9MOL    C3615363   5.059  -0.771   3.352  0.4147 -0.3479  0.2728
    9MOL     H115364   5.054  -0.731   3.245 -0.9483 -0.2768 -0.6986
    9MOL     H215365   4.969  -0.756   3.412 -0.3751  0.5437 -0.2227
    9MOL     H315366   5.082  -0.872   3.355  0.6514 -2.1412  0.4550
    9MOL    C3715367   5.264  -0.380   3.554  0.4582  0.6628  0.1486
    9MOL    C3815368   5.256  -0.359   3.700 -0.1500  0.3540  0.3011
    9MOL    C3915369   5.256  -0.230   3.756  0.1035  0.2586 -0.3698
    9MOL    C4015370   5.288  -0.123   3.670 -0.8270 -0.2710 -0.0242
    9MOL    C4115371   5.293  -0.147   3.531 -0.3512  0.0088  0.5263
    9MOL    C4215372   5.279  -0.266   3.471 -0.0260 -1.1722 -0.5269
    9MOL    C4315373   5.325  -0.747   3.210 -0.1840 -0.5113 -0.3913
    9MOL     F715374   5.235  -0.836   3.150  0.3205  0.2579  0.4883
    9MOL     F815375   5.444  -0.811   3.224  0.0009 -0.1545  0.2327
    9MOL     F915376   5.357  -0.659   3.114  0.5098 -0.4259 -0.5358
    9MOL    C4415377   4.468  -0.764   3.746 -0.4246  0.3882 -0.3756
    9MOL    C4515378   4.458  -0.655   3.819 -0.9180  0.6282 -1.0194
    9MOL    C4615379   4.344  -0.631   3.916 -0.0085 -0.1544  0.0601
    9MOL    F1015380   4.374  -0.657   4.045  0.5082 -0.7760 -0.3692
    9MOL    F1115381   4.301  -0.500   3.917 -0.9007 -0.1545 -0.0037
    9MOL     H415382   4.397  -0.844   3.738  0.8250  0.4164 -0.1061
    9MOL     H515383   4.718  -0.688   3.464 -3.4599  0.1730 -1.2824
    9MOL     H615384   4.774  -0.837   3.273  1.4668  0.1297  0.9108
    9MOL     H715385   4.589  -1.040   3.685  1.1242 -1.7791 -1.3382
    9MOL     H815386   4.645  -1.178   3.501 -1.7508 -1.6544  1.6534
    9MOL     H915387   5.076  -1.237   3.065 -0.3358  1.9809 -0.0979
    9MOL    H1015388   4.799  -1.562   2.961 -0.1870  1.4213 -1.3586
    9MOL    H1115389   4.618  -1.445   3.075 -0.0487 -4.9462  1.4325
    9MOL    H1215390   5.353  -1.482   2.901  1.4665 -0.3466 -0.9345
    9MOL    H1315391   5.071  -1.526   3.237 -0.4344 -0.2716 -2.3303
    9MOL    H1415392   5.542  -1.508   3.074  1.5642  1.2339 -0.5680
    9MOL     O415393   5.169  -1.613   3.483 -0.0502 -0.3615 -0.2169
    9MOL    H1515394   4.741  -0.481   3.566 -1.7853 -2.4579  2.0830
    9MOL    H1615395   4.968  -0.431   3.480  0.4687 -0.6708 -3.3167
    9MOL    H1715396   4.881  -0.798   3.810  1.5434  0.9850  0.5321
    9MOL    H1815397   5.249  -0.210   3.865  0.8657 -0.9751 -0.5820
    9MOL    H1915398   5.253  -0.444   3.771  1.4140 -0.5585  1.8596
    9MOL    H2015399   5.316  -0.062   3.470  1.1964  0.7205 -3.3681
    9MOL    H2115400   5.279  -0.277   3.363  0.3902  1.6241 -0.4981
    9MOL    H2215401   5.414  -0.492   3.337  1.0623  0.2993 -0.0490
    9MOL    H2315402   5.105  -0.775   3.711  1.1552  5.8778  1.2515
    9MOL    F1215403   4.242  -0.715   3.883 -0.1989  0.2206  0.1857
    9MOL    C4715404   4.573  -0.432   3.791 -0.0900  1.1677  0.1853
    9MOL    H2415405   4.559  -0.378   3.886 -1.1024  0.5790 -1.4082
    9MOL    H2515406   4.482  -0.395   3.742 -2.8405 -0.1309  0.4363
    9MOL    H2615407   4.666  -0.392   3.747  2.0971 -0.1189 -0.9818
    9MOL     N115408   5.591  -1.873   3.364  0.0811  0.6450 -0.2277
    9MOL     N215409   5.780  -1.914   3.259 -1.2289 -0.1922 -0.4475
    9MOL     C115410   5.729  -1.856   3.377 -0.2362 -0.3222 -0.1394
    9MOL     C215411   5.912  -1.960   3.241  0.1998  0.7287  0.4308
    9MOL     C315412   6.013  -1.872   3.286 -0.8600 -0.7069  0.7290
    9MOL     C415413   6.146  -1.915   3.268 -0.0146  0.3069  0.2477
    9MOL     C515414   6.180  -2.010   3.176 -0.0367  0.3039 -0.8515
    9MOL     C615415   6.081  -2.088   3.124  0.4121  0.1658  0.2323
    9MOL     C715416   5.945  -2.067   3.152 -0.8701 -0.3269 -0.1689
    9MOL     N315417   6.312  -2.002   3.132 -0.1668  0.4082 -0.5982
    9MOL     C815418   6.416  -2.084   3.177 -0.1898  0.2929 -0.2769
    9MOL     C915419   6.533  -1.997   3.173  0.3361 -0.1098 -0.2851
    9MOL    C1015420   6.496  -1.873   3.123 -0.0343 -0.3994  0.1075
    9MOL    C1115421   6.355  -1.878   3.087  0.5967 -0.0365 -0.2765
    9MOL     O115422   6.284  -1.785   3.051 -0.0314  0.1204 -0.1464
    9MOL    C1215423   6.650  -2.012   3.251  0.4296 -0.1309 -1.2474
    9MOL    C1315424   6.732  -1.901   3.278  0.5837 -0.3290  0.0639
    9MOL    C1415425   6.703  -1.776   3.210 -0.7750  0.4073 -0.0639
    9MOL    C1515426   6.581  -1.767   3.138 -0.4091 -0.3533 -0.4883
    9MOL    C1615427   6.969  -1.974   3.357  0.5794  0.7020 -0.6932
    9MOL    C1715428   7.026  -2.086   3.413  0.3095 -0.0478 -0.0799
    9MOL    C1815429   7.148  -2.137   3.365 -0.4078 -0.2316 -0.2532
    9MOL    C1915430   7.041  -1.915   3.248 -0.4757  0.1294  0.1691
    9MOL    C2015431   7.216  -2.077   3.264  0.0723  0.2896  0.5575
    9MOL    C2115432   7.167  -1.961   3.208  0.0477  0.0760  0.6971
    9MOL    C2215433   6.831  -1.910   3.395 -0.3386  0.1734 -0.0560
    9MOL    C2315434   6.859  -1.765   3.446 -0.8822 -0.8132  0.9647
    9MOL     F115435   6.950  -1.764   3.553 -0.5057  0.0909  0.1569
    9MOL     F215436   6.756  -1.689   3.480 -0.0318 -0.2882 -0.1505
    9MOL     F315437   6.930  -1.701   3.356  0.0950  0.5148 -0.3923
    9MOL    C2415438   6.761  -1.983   3.525  0.1524  0.6249 -0.8024
    9MOL     F415439   6.638  -1.930   3.555 -0.0257 -0.3962  0.2290
    9MOL     F515440   6.839  -1.960   3.642  0.3244  0.6641  0.1673
    9MOL     F615441   6.753  -2.114   3.509  0.3460 -0.3597 -0.5767
    9MOL     O215442   6.413  -2.194   3.230  0.6952 -0.6470  0.0041
    9MOL    C2515443   7.245  -2.233   3.430 -0.5650  0.4559  0.0750
    9MOL     N415444   7.360  -2.234   3.356 -0.0086  0.4395  0.0754
    9MOL    C2615445   7.351  -2.132   3.260 -0.6346  0.0281 -0.7801
    9MOL     O315446   7.448  -2.100   3.194  0.3334  0.2428  0.7058
    9MOL    C2715447   5.786  -1.810   3.500 -0.2973  0.2910  0.9433
    9MOL    C2815448   5.812  -1.674   3.502  0.2294 -0.2901  0.5569
    9MOL    C2915449   5.806  -1.890   3.615  0.4588  0.9241  0.1274
    9MOL    C3015450   5.842  -1.607   3.624 -0.1165 -0.8448  0.0603
    9MOL    C3115451   5.853  -1.822   3.727  0.6767  0.1401 -0.5207
    9MOL    C3215452   5.861  -1.683   3.739 -0.5597 -0.8448  0.9197
    9MOL    C3315453   5.845  -1.620   3.868 -1.1164  0.1576 -0.0989
    9MOL     N515454   5.730  -1.557   3.911 -0.0287 -0.4403 -0.3417
    9MOL     N615455   5.943  -1.625   3.979  0.3047 -0.6923 -0.2440
    9MOL    C3415456   5.755  -1.526   4.044  0.0055 -0.1191 -0.1579
    9MOL    C3515457   5.876  -1.564   4.086  0.5124  0.2062 -0.4982
    9MOL    C3615458   6.087  -1.605   3.948 -0.0071 -0.0377 -0.0414
    9MOL     H115459   6.112  -1.495   3.937  2.8311  0.2209 -0.4288
    9MOL     H215460   6.106  -1.647   3.846 -1.0344  1.0424  2.1150
    9MOL     H315461   6.144  -1.666   4.019 -0.7833 -2.3888 -0.6978
    9MOL    C3715462   5.620  -1.536   3.832  0.3366  0.5304  0.2683
    9MOL    C3815463   5.623  -1.425   3.742  0.5873  0.4155 -0.6615
    9MOL    C3915464   5.541  -1.433   3.627 -0.1764 -0.3153 -1.0693
    9MOL    C4015465   5.450  -1.540   3.598 -0.6666 -0.4160 -0.3810
    9MOL    C4115466   5.447  -1.644   3.689  0.3574  0.2909  0.4110
    9MOL    C4215467   5.531  -1.643   3.802 -0.0376  0.0966 -0.2624
    9MOL    C4315468   5.939  -1.544   4.221  0.1291  0.3841 -0.1809
    9MOL     F715469   6.025  -1.429   4.225  0.2061  0.0168  0.7016
    9MOL     F815470   5.993  -1.665   4.257  0.1667 -0.4038 -0.2151
    9MOL     F915471   5.845  -1.522   4.308  0.2737  0.3570  0.2054
    9MOL    C4415472   5.666  -1.920   3.171  0.0377  0.2613  0.0210
    9MOL    C4515473   5.556  -1.889   3.231  0.2399  0.0235 -0.1194
    9MOL    C4615474   5.423  -1.886   3.166  0.3331 -0.6016  0.1373
    9MOL    F1015475   5.437  -1.831   3.040 -0.2874  1.0000 -0.5157
    9MOL    F1115476   5.388  -2.014   3.159  0.0946 -0.1244  0.2865
    9MOL     H415477   5.694  -1.925   3.061 -1.5270  0.2137  0.0026
    9MOL     H515478   5.993  -1.778   3.337  1.1027 -0.2841  4.5484
    9MOL     H615479   6.219  -1.847   3.314  0.1295  2.3552  0.5441
    9MOL     H715480   5.867  -2.119   3.097  0.2849  2.0429 -1.4852
    9MOL     H815481   6.096  -2.178   3.058 -0.3538 -1.4794  0.8248
    9MOL     H915482   6.667  -2.111   3.305  1.9482 -0.7206 -0.9292
    9MOL    H1015483   6.760  -1.687   3.221  0.0794 -2.4593  0.6001
    9MOL    H1115484   6.547  -1.673   3.097 -0.0146  1.4664  0.6718
    9MOL    H1215485   7.001  -1.831   3.199 -1.2560 -2.2080  1.1050
    9MOL    H1315486   6.984  -2.123   3.503  0.3144  1.7460 -0.2436
    9MOL    H1415487   7.228  -1.901   3.141  1.3061  2.0090  3.3642
    9MOL     O415488   7.223  -2.309   3.519 -0.0258 -0.3640 -0.4787
    9MOL    H1515489   5.803  -1.618   3.412 -0.7778 -0.4491  0.4174
    9MOL    H1615490   5.850  -1.502   3.625  2.1975  0.1151  1.1770
    9MOL    H1715491   5.777  -1.996   3.601 -1.3379 -0.4775  0.6624
    9MOL    H1815492   5.546  -1.354   3.550  0.3373 -1.5109 -0.6279
    9MOL    H1915493   5.695  -1.351   3.750  0.1771  0.4605  0.4072
    9MOL    H2015494   5.395  -1.734   3.670  3.7384 -0.2787  2.1974
    9MOL    H2115495   5.545  -1.726   3.871 -2.2606  0.1817  0.7389
    9MOL    H2215496   5.676  -1.468   4.091 -1.2924 -1.8871 -0.5198
    9MOL    H2315497   5.871  -1.880   3.818  1.9931 -0.1884  0.6289
    9MOL    F1215498   5.331  -1.814   3.240  0.1359 -0.0693  0.3266
    9MOL    C4715499   5.495  -1.904   3.471 -0.1589 -0.0915  0.3698
    9MOL    H2415500   5.436  -1.989   3.454 -0.9807 -0.0745 -2.4348
    9MOL    H2515501   5.426  -1.822   3.491 -0.7117 -1.0533  0.9315
    9MOL    H2615502   5.552  -1.922   3.558  0.4940 -2.7326  1.5076
    9MOL     N115503   7.653  -2.330   2.856 -0.3261 -0.3553 -0.1349
    9MOL     N215504   7.654  -2.096   2.876  0.0275 -0.6712  0.0426
    9MOL     C115505   7.702  -2.219   2.936 -0.1122 -0.1226 -0.3046
    9MOL     C215506   7.656  -1.960   2.919  0.0399  0.2575  0.3198
    9MOL     C315507   7.759  -1.906   3.002  0.3491  0.5816  0.0151
    9MOL     C415508   7.757  -1.769   3.028  0.1629  0.3838  0.3187
    9MOL     C515509   7.658  -1.687   2.980 -0.1697 -0.3313 -0.0770
    9MOL     C615510   7.540  -1.742   2.914  0.4967 -0.1252  0.3936
    9MOL     C715511   7.542  -1.876   2.883  0.1792 -0.5275  0.9504
    9MOL     N315512   7.656  -1.549   3.007 -0.1047 -0.4254 -0.7178
    9MOL     C815513   7.550  -1.477   3.069  0.1231  1.0510  0.1592
    9MOL     C915514   7.589  -1.335   3.066 -0.5187 -0.5067 -0.4067
    9MOL    C1015515   7.719  -1.327   3.012  0.2470 -0.2484 -0.7788
    9MOL    C1115516   7.756  -1.464   2.964 -0.0671  0.5729 -0.2450
    9MOL     O115517   7.855  -1.490   2.894  0.2841  0.1454  0.3552
    9MOL    C1215518   7.520  -1.220   3.103  0.6226  0.2546  0.5531
    9MOL    C1315519   7.586  -1.096   3.080 -1.0397 -0.6053 -0.2994
    9MOL    C1415520   7.720  -1.093   3.031  0.7960  0.3291 -0.1520
    9MOL    C1515521   7.790  -1.209   2.999  0.8024  0.0542  0.6398
    9MOL    C1615522   7.361  -0.996   3.111  0.4792  0.2844 -0.0716
    9MOL    C1715523   7.264  -0.972   3.213  0.3780 -0.4368 -0.2213
    9MOL    C1815524   7.130  -1.014   3.187  0.6559  0.2471 -0.6672
    9MOL    C1915525   7.317  -1.052   2.991 -0.1090  0.0431  0.4123
    9MOL    C2015526   7.097  -1.083   3.068  0.1781  0.3621  0.6581
    9MOL    C2115527   7.190  -1.101   2.969  0.0412 -0.5898 -0.2001
    9MOL    C2215528   7.513  -0.971   3.124 -0.1291 -0.2795 -0.0257
    9MOL    C2315529   7.559  -0.941   3.274 -0.0129  0.6534 -0.4196
    9MOL     F115530   7.547  -1.062   3.352 -0.1320 -0.5433 -0.3940
    9MOL     F215531   7.510  -0.826   3.334  0.4232 -0.0191  0.1035
    9MOL     F315532   7.691  -0.918   3.278 -0.4920  0.4562 -0.1748
    9MOL    C2415533   7.533  -0.848   3.034 -1.1055  0.1746 -0.2581
    9MOL     F415534   7.449  -0.749   3.082  0.1554 -0.0267  0.1879
    9MOL     F515535   7.504  -0.866   2.904  0.1383 -0.4453 -0.6820
    9MOL     F615536   7.650  -0.788   3.044 -0.4153  0.3159  0.1420
    9MOL     O215537   7.449  -1.534   3.119 -1.1019  1.1401 -0.0674
    9MOL    C2515538   7.006  -1.026   3.272  0.6028  0.5361 -0.1098
    9MOL     N415539   6.918  -1.111   3.205 -0.2905 -0.2306 -0.1713
    9MOL    C2615540   6.953  -1.134   3.077  0.1890  0.2990  0.0196
    9MOL     O315541   6.884  -1.164   2.984 -0.3224  0.4934 -0.0592
    9MOL    C2715542   7.786  -2.235   3.046 -0.0931 -0.4552 -0.3216
    9MOL    C2815543   7.744  -2.180   3.160 -0.0675  0.1656 -0.3930
    9MOL    C2915544   7.899  -2.316   3.043 -0.9347  0.2696 -0.6166
    9MOL    C3015545   7.804  -2.213   3.279 -0.0505  1.0273 -0.2345
    9MOL    C3115546   7.972  -2.346   3.160  0.5997 -0.0515 -0.3948
    9MOL    C3215547   7.911  -2.306   3.281 -0.2984  0.3091  0.2332
    9MOL    C3315548   7.928  -2.391   3.396 -0.1971 -0.3216 -0.2283
    9MOL     N515549   7.836  -2.491   3.437  0.3798 -0.5434  0.1179
    9MOL     N615550   8.045  -2.407   3.469 -0.1528 -0.1764 -0.1726
    9MOL    C3415551   7.901  -2.560   3.528 -0.1542 -0.3394  0.4338
    9MOL    C3515552   8.025  -2.519   3.542 -0.2147  0.5733 -0.3842
    9MOL    C3615553   8.140  -2.301   3.503 -0.3949 -0.7532 -0.1000
    9MOL     H115554   8.152  -2.303   3.618 -0.3303  0.9460  0.6751
    9MOL     H215555   8.122  -2.200   3.470  1.3985 -0.6775  0.3067
    9MOL     H315556   8.243  -2.331   3.462  1.0644 -0.2046  0.9642
    9MOL    C3715557   7.700  -2.465   3.436 -0.6592  0.5695  0.3458
    9MOL    C3815558   7.626  -2.495   3.317  0.3715 -0.0769 -0.4509
    9MOL    C3915559   7.518  -2.405   3.290  0.1574 -0.8555 -0.7497
    9MOL    C4015560   7.470  -2.314   3.385 -0.4358 -0.8577 -0.3686
    9MOL    C4115561   7.533  -2.303   3.507 -0.6698 -0.2120  0.0617
    9MOL    C4215562   7.646  -2.381   3.539  0.9611  0.1265 -0.5515
    9MOL    C4315563   8.119  -2.574   3.649 -0.1709  0.0196 -0.0005
    9MOL     F715564   8.157  -2.485   3.742 -0.3406 -0.0004  0.1952
    9MOL     F815565   8.224  -2.621   3.582 -0.2630 -0.4676 -0.0793
    9MOL     F915566   8.064  -2.682   3.714  0.0196  0.0148  0.5236
    9MOL    C4415567   7.602  -2.134   2.752 -0.3925  0.3903  0.0888
    9MOL    C4515568   7.598  -2.267   2.740  0.0551 -0.0376  0.4624
    9MOL    C4615569   7.592  -2.340   2.610 -0.5423 -0.0177 -1.0674
    9MOL    F1015570   7.554  -2.256   2.510 -0.3424 -0.3906 -0.3611
    9MOL    F1115571   7.712  -2.389   2.575  0.2826 -0.1503 -0.3271
    9MOL     H415572   7.579  -2.063   2.671 -0.5553  1.1951  0.9511
    9MOL     H515573   7.842  -1.968   3.038 -1.2793 -1.8706  0.4058
    9MOL     H615574   7.836  -1.717   3.078 -1.6774 -1.3178 -1.1801
    9MOL     H715575   7.457  -1.902   2.822 -0.7381  2.4154 -0.1550
    9MOL     H815576   7.450  -1.682   2.898  1.4421 -1.1449  0.9798
    9MOL     H915577   7.424  -1.232   3.141 -0.0596 -0.5553 -0.0365
    9MOL    H1015578   7.765  -0.996   3.004 -1.8503 -1.7294 -4.7919
    9MOL    H1115579   7.890  -1.194   2.958  1.5028 -1.2222 -0.7408
    9MOL    H1215580   7.389  -1.066   2.906 -0.8671 -0.1566 -1.6986
    9MOL    H1315581   7.291  -0.911   3.304  0.0233  1.6214  2.1005
    9MOL    H1415582   7.169  -1.148   2.875 -1.4215  0.1038 -2.5323
    9MOL     O415583   6.992  -0.982   3.389  0.3580  0.2358  0.3720
    9MOL    H1515584   7.668  -2.107   3.159  1.3127  0.8363 -1.9618
    9MOL    H1615585   7.749  -2.185   3.370 -1.7373  0.8770  0.7020
    9MOL    H1715586   7.933  -2.367   2.947  1.4718 -1.8847  1.3215
    9MOL    H1815587   7.468  -2.410   3.189 -0.6717 -0.2887  1.4155
    9MOL    H1915588   7.656  -2.573   3.241 -0.0265 -1.0211 -3.3778
    9MOL    H2015589   7.500  -2.238   3.587  0.3156 -0.6595 -2.5858
    9MOL    H2115590   7.697  -2.347   3.626 -0.6195 -3.4534 -1.5906
    9MOL    H2215591   7.859  -2.657   3.566 -0.2555 -1.0020  3.4838
    9MOL    H2315592   8.057  -2.417   3.148  0.0502 -1.3794 -0.6100
    9MOL    F1215593   7.505  -2.449   2.627 -0.4625  0.0326  0.0599
    9MOL    C4715594   7.620  -2.469   2.900 -0.0896  0.2680  0.5838
    9MOL    H2415595   7.593  -2.530   2.813 -0.0185 -0.2699 -1.9309
    9MOL    H2515596   7.528  -2.461   2.961 -1.0139  1.5721  2.9232
    9MOL    H2615597   7.703  -2.509   2.968  2.2246 -2.2487  1.8487
    9MOL     N115598   6.058  -1.647   2.929 -0.7147  0.0287 -0.1129
    9MOL     N215599   5.920  -1.497   3.032  0.3985  0.1168  0.8089
    9MOL     C115600   6.054  -1.536   3.019 -0.0995  0.1476  0.3064
    9MOL     C215601   5.879  -1.405   3.125  0.6191  0.0617  0.1788
    9MOL     C315602   5.883  -1.443   3.256 -0.4476 -0.2080 -0.0455
    9MOL     C415603   5.861  -1.342   3.351 -0.2703  0.6086 -0.6283
    9MOL     C515604   5.849  -1.208   3.312  0.1682 -0.9981 -0.1086
    9MOL     C615605   5.813  -1.179   3.177 -0.4906  0.7693 -0.0908
    9MOL     C715606   5.838  -1.279   3.083  0.1864 -0.6461 -0.2433
    9MOL     N315607   5.850  -1.096   3.406  0.2530  0.8636  0.1283
    9MOL     C815608   5.740  -1.022   3.421  0.7688 -0.2132 -0.3210
    9MOL     C915609   5.775  -0.923   3.530  0.2002 -0.6180  0.6209
    9MOL    C1015610   5.905  -0.942   3.563 -0.0146  0.2154 -0.6357
    9MOL    C1115611   5.959  -1.060   3.490 -0.0698 -0.6831  0.2029
    9MOL     O115612   6.062  -1.118   3.510 -0.5042 -0.2097 -0.3183
    9MOL    C1215613   5.708  -0.807   3.578 -0.0337  0.3220 -0.4426
    9MOL    C1315614   5.773  -0.727   3.677 -0.0948 -0.7559  0.1657
    9MOL    C1415615   5.908  -0.756   3.710  0.0817 -0.7771 -0.2763
    9MOL    C1515616   5.980  -0.855   3.644  0.1252  1.0848 -0.4661
    9MOL    C1615617   5.757  -0.487   3.636  0.3438 -0.3718 -0.1660
    9MOL    C1715618   5.748  -0.511   3.493  0.3313  0.2858 -0.5823
    9MOL    C1815619   5.806  -0.421   3.402 -0.2173 -0.0063  0.4087
    9MOL    C1915620   5.810  -0.365   3.674  0.3402 -0.0415  0.0744
    9MOL    C2015621   5.860  -0.308   3.444 -0.1195  0.4359 -0.5779
    9MOL    C2115622   5.871  -0.277   3.581  1.3533 -0.4780  0.2066
    9MOL    C2215623   5.710  -0.592   3.736  0.4672  0.1352  0.0075
    9MOL    C2315624   5.551  -0.610   3.738 -0.7540  0.0521  0.3042
    9MOL     F115625   5.513  -0.730   3.791  0.1932 -0.7289 -0.2788
    9MOL     F215626   5.494  -0.600   3.616 -0.0057 -0.0635 -0.1735
    9MOL     F315627   5.487  -0.515   3.803  0.2757 -0.2990  0.3090
    9MOL    C2415628   5.759  -0.568   3.884 -0.3543  0.0814 -0.5056
    9MOL     F415629   5.679  -0.485   3.957 -0.4446 -0.0921 -0.2092
    9MOL     F515630   5.885  -0.519   3.892  0.1320  0.0167 -0.1258
    9MOL     F615631   5.765  -0.684   3.959  0.0220 -0.2251  0.1935
    9MOL     O215632   5.632  -1.037   3.367  0.1829  0.5622 -0.4791
    9MOL    C2515633   5.842  -0.437   3.255  0.3940  0.0558 -0.0675
    9MOL     N415634   5.922  -0.331   3.226  0.1822 -0.7250 -0.5104
    9MOL    C2615635   5.940  -0.249   3.332  0.2360 -0.2516  0.1488
    9MOL     O315636   6.017  -0.153   3.332 -0.8457 -0.1850  0.6244
    9MOL    C2715637   6.152  -1.487   3.108  0.4378 -0.0579 -0.1626
    9MOL    C2815638   6.188  -1.571   3.210 -0.2291 -0.0162 -0.2881
    9MOL    C2915639   6.180  -1.352   3.129 -0.1871 -0.1449  0.0738
    9MOL    C3015640   6.271  -1.534   3.319  0.5048 -0.9648 -0.0784
    9MOL    C3115641   6.255  -1.304   3.238  0.7316 -0.7716 -0.1354
    9MOL    C3215642   6.302  -1.397   3.333  0.9734 -0.7769 -1.2204
    9MOL    C3315643   6.343  -1.343   3.459  0.7594  0.1007  0.5223
    9MOL     N515644   6.439  -1.242   3.476  0.2023 -0.0622 -0.1368
    9MOL     N615645   6.276  -1.368   3.584  0.3136 -0.0114 -0.7007
    9MOL    C3415646   6.431  -1.210   3.613  0.3315 -0.8670 -0.3276
    9MOL    C3515647   6.327  -1.267   3.667  0.6557 -0.5164  0.0316
    9MOL    C3615648   6.137  -1.411   3.581 -0.3637  0.2972  0.7524
    9MOL     H115649   6.079  -1.310   3.588 -2.8216 -0.6507 -3.0262
    9MOL     H215650   6.120  -1.477   3.669  0.6015  0.6740 -0.5164
    9MOL     H315651   6.107  -1.458   3.488  1.2559  0.7464 -1.2955
    9MOL    C3715652   6.548  -1.214   3.398 -0.3238 -0.1748 -0.0277
    9MOL    C3815653   6.628  -1.317   3.338 -0.1440 -0.1283  0.3316
    9MOL    C3915654   6.748  -1.285   3.274 -0.7613 -0.8094 -0.2720
    9MOL    C4015655   6.789  -1.150   3.254 -0.5924  0.3119 -0.0286
    9MOL    C4115656   6.705  -1.048   3.306 -0.2053  0.3049  0.6810
    9MOL    C4215657   6.587  -1.077   3.369  0.4705 -0.0701 -0.0269
    9MOL    C4315658   6.273  -1.234   3.808  0.1197  0.2547 -0.0521
    9MOL     F715659   6.179  -1.316   3.860 -1.0668 -0.0029  0.0069
    9MOL     F815660   6.223  -1.113   3.807 -0.2359  0.0395 -0.1354
    9MOL     F915661   6.373  -1.236   3.891 -0.1815 -0.9183 -0.1851
    9MOL    C4415662   5.847  -1.594   2.962 -0.0348 -0.2971  0.8581
    9MOL    C4515663   5.926  -1.677   2.894 -0.4051 -0.1083  0.0337
    9MOL    C4615664   5.888  -1.796   2.800 -0.4309  0.2901 -0.3093
    9MOL    F1015665   5.931  -1.776   2.681  0.5424 -0.2059 -0.1567
    9MOL    F1115666   5.943  -1.908   2.842 -0.1338  0.2814 -0.3252
    9MOL     H415667   5.745  -1.597   2.968  1.3382 -2.6844  0.5737
    9MOL     H515668   5.925  -1.539   3.287  1.6297 -0.3010  1.5827
    9MOL     H615669   5.887  -1.360   3.457 -1.3309  0.0953  1.5734
    9MOL     H715670   5.832  -1.257   2.979 -0.3880  0.1742 -0.9121
    9MOL     H815671   5.790  -1.082   3.150  0.0503 -1.4864 -1.1472
    9MOL     H915672   5.614  -0.794   3.540 -0.1984 -0.8928 -1.8716
    9MOL    H1015673   5.962  -0.684   3.767  0.0377 -0.4218 -0.6599
    9MOL    H1115674   6.080  -0.868   3.654 -1.4327 -0.6691  1.0537
    9MOL    H1215675   5.799  -0.334   3.777  2.2738  0.4089  2.1613
    9MOL    H1315676   5.725  -0.615   3.458  1.6506 -1.8673  0.1152
    9MOL    H1415677   5.928  -0.183   3.609  1.6763 -0.3075  0.2516
    9MOL     O415678   5.818  -0.530   3.185  0.0514 -0.1292 -0.1986
    9MOL    H1515679   6.155  -1.675   3.200 -0.5132 -0.8603 -1.3384
    9MOL    H1615680   6.284  -1.607   3.397  0.1201  0.3145  1.2458
    9MOL    H1715681   6.146  -1.283   3.049 -1.7743 -1.7115 -2.6583
    9MOL    H1815682   6.810  -1.359   3.219  0.4108  0.6881  0.3938
    9MOL    H1915683   6.586  -1.420   3.334 -3.0406  0.0033  1.6947
    9MOL    H2015684   6.734  -0.943   3.292  3.5659  0.8568 -0.6276
    9MOL    H2115685   6.532  -0.990   3.406  0.4440  1.8919  0.5371
    9MOL    H2215686   6.487  -1.130   3.655 -0.7831  2.9383  2.3733
    9MOL    H2315687   6.278  -1.202   3.251 -0.1458 -1.1014 -0.2419
    9MOL    F1215688   5.757  -1.806   2.801 -0.3148 -0.2328  0.0982
    9MOL    C4715689   6.172  -1.628   2.835  0.0608  0.1483 -0.0248
    9MOL    H2415690   6.138  -1.595   2.735  1.4273 -0.5047  1.2592
    9MOL    H2515691   6.222  -1.724   2.822 -0.5638  0.2173  1.0698
    9MOL    H2615692   6.246  -1.554   2.880  1.3308 -0.5693  0.3106
    9MOL     N115693   5.932   0.155   3.330 -0.8444 -0.0392  0.1960
    9MOL     N215694   6.124   0.154   3.455  0.4897 -0.1617  0.2554
    9MOL     C115695   6.074   0.166   3.321 -0.4279 -0.2101 -0.0071
    9MOL     C215696   6.255   0.161   3.496  0.0524 -0.2856  0.3471
    9MOL     C315697   6.335   0.047   3.485 -0.3670 -0.4689  0.0256
    9MOL     C415698   6.471   0.060   3.515  0.5558 -0.2287 -0.2784
    9MOL     C515699   6.516   0.174   3.590 -0.3842 -0.0840  0.3841
    9MOL     C615700   6.432   0.284   3.617 -0.7294  0.6726 -0.0395
    9MOL     C715701   6.301   0.276   3.568 -0.2117  0.2728  0.1431
    9MOL     N315702   6.654   0.197   3.609 -0.4261  0.1290  0.4185
    9MOL     C815703   6.735   0.280   3.530  0.0760  0.1617 -0.0157
    9MOL     C915704   6.875   0.264   3.580 -0.3047 -0.0108  0.1391
    9MOL    C1015705   6.872   0.166   3.682  0.6429  0.4653  0.5842
    9MOL    C1115706   6.730   0.119   3.699  0.2850 -0.2904  0.3933
    9MOL     O115707   6.697   0.027   3.774  0.1491 -0.0603 -0.2360
    9MOL    C1215708   6.993   0.311   3.526  0.5257 -0.0030  0.3255
    9MOL    C1315709   7.116   0.255   3.568 -1.0494  0.8864  0.2137
    9MOL    C1415710   7.117   0.166   3.679  0.7323  0.2720  0.0739
    9MOL    C1515711   6.997   0.113   3.730  0.1057  0.1242 -0.2807
    9MOL    C1615712   7.293   0.126   3.457 -0.9285 -0.5244 -0.0108
    9MOL    C1715713   7.424   0.071   3.455 -0.0397 -0.1236  0.0848
    9MOL    C1815714   7.448  -0.067   3.420 -0.2538 -0.1716 -0.1949
    9MOL    C1915715   7.200   0.047   3.386  0.5468 -0.0060 -0.4207
    9MOL    C2015716   7.345  -0.137   3.367 -1.2180  0.6487  0.0775
    9MOL    C2115717   7.220  -0.086   3.342  0.0272  0.3635  0.4411
    9MOL    C2215718   7.253   0.269   3.489 -0.5988 -0.2642 -0.4431
    9MOL    C2315719   7.258   0.350   3.350 -0.0392 -0.4613  0.1840
    9MOL     F115720   7.381   0.347   3.292  0.2270  0.7282 -0.0887
    9MOL     F215721   7.223   0.480   3.363  0.1038  0.0928  0.4598
    9MOL     F315722   7.164   0.301   3.264 -0.0057 -0.1632 -0.3940
    9MOL    C2415723   7.348   0.349   3.585 -0.9143 -0.0742  0.9814
    9MOL     F415724   7.298   0.467   3.636 -0.2428  0.2134 -0.3706
    9MOL     F515725   7.478   0.364   3.542  0.1044  0.1049  0.0611
    9MOL     F615726   7.377   0.272   3.696 -0.4131 -0.3806 -0.3053
    9MOL     O215727   6.697   0.358   3.440  0.8998 -0.3212 -0.1248
    9MOL    C2515728   7.578  -0.150   3.417  0.4450 -0.0910  0.1624
    9MOL     N415729   7.527  -0.267   3.366 -0.4753 -0.6937  0.0614
    9MOL    C2615730   7.394  -0.273   3.342 -0.3161  0.4876  0.0331
    9MOL     O315731   7.326  -0.360   3.297 -0.5836  0.4749  0.0078
    9MOL    C2715732   6.143   0.142   3.204  0.1323 -0.4791 -0.1848
    9MOL    C2815733   6.211   0.022   3.192  0.2294 -0.0451 -0.3375
    9MOL    C2915734   6.136   0.235   3.098  0.1712 -0.8707  0.5134
    9MOL    C3015735   6.273  -0.007   3.069 -0.4055  0.1456  0.0939
    9MOL    C3115736   6.177   0.191   2.972 -0.7777  0.2846 -0.0273
    9MOL    C3215737   6.244   0.070   2.952  0.4196 -0.0838 -0.0214
    9MOL    C3315738   6.250   0.009   2.827  0.4971  0.0531 -0.0981
    9MOL     N515739   6.198  -0.119   2.796  0.2186 -0.4831  0.1729
    9MOL     N615740   6.283   0.072   2.705  0.6928 -0.3778  0.4597
    9MOL    C3415741   6.229  -0.139   2.661  0.2581 -0.6781  0.5199
    9MOL    C3515742   6.284  -0.035   2.609 -0.1147  0.0180  0.1890
    9MOL    C3615743   6.353   0.199   2.687  0.8352 -0.2036  0.1422
    9MOL     H115744   6.453   0.174   2.645  3.3714 -0.9691  2.5088
    9MOL     H215745   6.361   0.261   2.774 -0.1986  0.6279  1.0818
    9MOL     H315746   6.289   0.260   2.623 -1.6254 -0.5775  1.8216
    9MOL    C3715747   6.117  -0.187   2.885 -0.7195  0.7856 -0.3080
    9MOL    C3815748   6.001  -0.123   2.928 -0.0391 -0.1022  0.1290
    9MOL    C3915749   5.934  -0.174   3.042 -0.4115  0.8112 -0.7873
    9MOL    C4015750   5.976  -0.295   3.102 -0.0532 -0.2929 -0.5204
    9MOL    C4115751   6.081  -0.370   3.043  0.2572 -0.0870  0.1272
    9MOL    C4215752   6.159  -0.309   2.944  0.2072 -0.3599 -0.4089
    9MOL    C4315753   6.341  -0.008   2.477 -0.0596 -0.2754 -0.4737
    9MOL     F715754   6.473   0.033   2.477 -0.2575  0.2262  0.4032
    9MOL     F815755   6.263   0.093   2.425 -0.4210 -0.0287  0.1459
    9MOL     F915756   6.311  -0.109   2.395 -0.1485  0.2718 -0.3751
    9MOL    C4415757   6.012   0.152   3.534  0.3815  0.6255 -0.0347
    9MOL    C4515758   5.900   0.153   3.467  0.5790 -0.2041  0.2831
    9MOL    C4615759   5.763   0.158   3.519  0.0834  0.3697  0.4428
    9MOL    F1015760   5.747   0.143   3.655 -0.7186  0.2326  0.0801
    9MOL    F1115761   5.695   0.266   3.478  0.1710 -0.0862  0.6296
    9MOL     H415762   6.020   0.148   3.640 -1.3622 -0.7002 -2.9469
    9MOL     H515763   6.310  -0.038   3.427  3.1123  0.2019 -0.7534
    9MOL     H615764   6.540  -0.017   3.504 -2.6994 -0.9594  0.9807
    9MOL     H715765   6.226   0.349   3.582 -0.9669  2.3291  2.7607
    9MOL     H815766   6.472   0.371   3.670 -0.3503 -0.5429 -0.8244
    9MOL     H915767   6.995   0.363   3.435 -0.0736  0.4485 -0.2855
    9MOL    H1015768   7.216   0.121   3.709  0.8265  1.3383  0.4979
    9MOL    H1115769   7.009   0.037   3.810 -0.8566 -1.4383  0.1256
    9MOL    H1215770   7.098   0.081   3.383 -3.3701 -1.1878  3.5474
    9MOL    H1315771   7.505   0.126   3.497  2.6544 -1.7084  2.2625
    9MOL    H1415772   7.136  -0.143   3.294 -1.8308 -0.3654 -0.3951
    9MOL     O415773   7.696  -0.118   3.430 -0.6868 -0.2675 -0.2881
    9MOL    H1515774   6.209  -0.053   3.274 -0.9719  0.1176  0.1541
    9MOL    H1615775   6.332  -0.097   3.060  0.5351 -0.9887  0.6686
    9MOL    H1715776   6.067   0.320   3.097 -0.9553  1.7402  1.4620
    9MOL    H1815777   5.855  -0.124   3.083 -0.3171  0.5669 -1.4435
    9MOL    H1915778   5.973  -0.031   2.881 -1.9205  2.2798 -3.5646
    9MOL    H2015779   6.102  -0.468   3.079  0.9412  1.1697  0.3702
    9MOL    H2115780   6.254  -0.357   2.904  1.0296  1.5956 -0.9712
    9MOL    H2215781   6.221  -0.238   2.612 -0.8964  1.3028 -0.3605
    9MOL    H2315782   6.145   0.244   2.880 -1.5976  0.3616  0.4547
    9MOL    F1215783   5.696   0.048   3.481  0.2009  0.5618  0.3842
    9MOL    C4715784   5.849   0.098   3.224  0.9110  0.7435  0.2454
    9MOL    H2415785   5.753   0.149   3.237  0.8859  2.2699  0.6025
    9MOL    H2515786   5.838  -0.008   3.234 -1.2467  0.8380  1.5858
    9MOL    H2615787   5.891   0.133   3.127  2.8393  2.0089 -2.2357
    9MOL     N115788   8.360  -0.302   3.777  0.0590 -0.4005 -0.3142
    9MOL     N215789   8.492  -0.426   3.635 -0.0135 -0.3449  0.1397
    9MOL     C115790   8.360  -0.408   3.676 -0.0552 -0.0091  0.3170
    9MOL     C215791   8.542  -0.522   3.539  0.4109 -0.6572  0.1039
    9MOL     C315792   8.498  -0.651   3.565  0.6209  0.3930 -0.8310
    9MOL     C415793   8.536  -0.749   3.480  0.2349 -0.1975  0.0428
    9MOL     C515794   8.606  -0.723   3.366 -0.4609 -0.5568 -0.4611
    9MOL     C615795   8.660  -0.596   3.342  0.4715  0.2448  0.2795
    9MOL     C715796   8.625  -0.492   3.435 -0.3797  0.6227 -0.5819
    9MOL     N315797   8.659  -0.837   3.301  0.2369 -0.4233 -0.1548
    9MOL     C815798   8.779  -0.890   3.344 -0.2250 -0.2531  0.0182
    9MOL     C915799   8.763  -1.034   3.339  0.2002 -0.4724  0.1404
    9MOL    C1015800   8.645  -1.061   3.273  0.3568 -0.1748 -0.2163
    9MOL    C1115801   8.578  -0.930   3.239  0.2990  0.2990  0.4862
    9MOL     O115802   8.468  -0.912   3.188 -0.0295  0.1412 -0.0365
    9MOL    C1215803   8.834  -1.140   3.396  0.1323  0.7362  0.0876
    9MOL    C1315804   8.775  -1.269   3.395  0.8928  0.1080  0.5190
    9MOL    C1415805   8.661  -1.294   3.320 -0.1718 -0.3488  0.4219
    9MOL    C1515806   8.603  -1.189   3.245  0.9095  0.0592 -0.4339
    9MOL    C1615807   8.857  -1.348   3.639 -0.1371  0.1123 -0.1153
    9MOL    C1715808   8.961  -1.394   3.723 -0.0181  0.3708  0.0835
    9MOL    C1815809   8.970  -1.343   3.854  0.1065 -0.4635  0.0673
    9MOL    C1915810   8.758  -1.262   3.692  0.9967  0.4392 -0.2950
    9MOL    C2015811   8.871  -1.258   3.903 -0.2053  0.5108 -0.2536
    9MOL    C2115812   8.765  -1.219   3.821 -0.1563  0.0336  0.4381
    9MOL    C2215813   8.841  -1.385   3.489 -0.3325 -0.8915 -0.3159
    9MOL    C2315814   8.749  -1.515   3.480 -0.0161  0.0115  0.6150
    9MOL     F115815   8.785  -1.596   3.577 -0.0863 -0.0049 -0.2355
    9MOL     F215816   8.741  -1.582   3.363 -0.0154  0.4425  0.0371
    9MOL     F315817   8.630  -1.477   3.521 -0.1471 -0.0400  0.3607
    9MOL    C2415818   8.979  -1.420   3.421 -0.1188  0.5260  0.2932
    9MOL     F415819   8.967  -1.431   3.287 -0.0954  0.2158  0.2554
    9MOL     F515820   9.027  -1.537   3.465 -0.3343  0.2699 -0.4718
    9MOL     F615821   9.069  -1.334   3.461  0.3575 -0.2269  0.4645
    9MOL     O215822   8.878  -0.830   3.391  0.5297 -0.4766 -0.3909
    9MOL    C2515823   9.080  -1.357   3.954 -0.1732 -1.0616 -0.1700
    9MOL     N415824   9.043  -1.269   4.054 -0.1080 -0.8779 -0.1153
    9MOL    C2615825   8.920  -1.211   4.036  0.6747 -0.1611  0.4885
    9MOL     O315826   8.871  -1.135   4.121  0.3112  0.1818  0.2317
    9MOL    C2715827   8.253  -0.473   3.620  0.3739  0.4817  0.4293
    9MOL    C2815828   8.199  -0.593   3.668 -0.8886  0.0609 -0.7200
    9MOL    C2915829   8.205  -0.413   3.503  0.6186  0.6960  0.0037
    9MOL    C3015830   8.110  -0.669   3.591 -0.6821  0.6463 -0.5578
    9MOL    C3115831   8.111  -0.489   3.432 -0.6187  0.2881  0.0627
    9MOL    C3215832   8.065  -0.617   3.468 -0.6149  0.1105 -0.1694
    9MOL    C3315833   8.010  -0.703   3.375  0.4191 -0.6703  0.4162
    9MOL     N515834   7.916  -0.667   3.275 -0.2244  0.0079 -0.4461
    9MOL     N615835   8.087  -0.816   3.324 -0.0828  0.2745 -0.4171
    9MOL    C3415836   7.928  -0.764   3.172 -0.4289 -0.4929 -0.6315
    9MOL    C3515837   8.031  -0.838   3.196  0.1494 -0.2698  0.4789
    9MOL    C3615838   8.236  -0.815   3.345 -0.5278 -0.4469  0.2256
    9MOL     H115839   8.277  -0.896   3.278  2.5317  0.4257  0.5302
    9MOL     H215840   8.255  -0.836   3.447  0.6343  3.9242  2.0086
    9MOL     H315841   8.272  -0.713   3.316 -2.2785 -0.9585 -0.0126
    9MOL    C3715842   7.807  -0.578   3.295 -0.1804 -0.2411 -0.2536
    9MOL    C3815843   7.731  -0.578   3.414 -0.2542  0.6899 -0.5284
    9MOL    C3915844   7.634  -0.478   3.434 -0.0602 -0.3344  0.6072
    9MOL    C4015845   7.611  -0.378   3.337 -0.1244  0.3341  0.6972
    9MOL    C4115846   7.683  -0.386   3.216  0.1627 -0.0613 -0.8109
    9MOL    C4215847   7.778  -0.487   3.194 -0.3778 -0.5756 -0.3831
    9MOL    C4315848   8.092  -0.935   3.103 -0.5271 -0.0368 -0.4868
    9MOL     F715849   8.130  -1.053   3.170 -0.1205 -0.4396 -0.6182
    9MOL     F815850   8.201  -0.878   3.044 -0.1807  0.0759  0.3740
    9MOL     F915851   8.013  -0.968   3.000 -0.1743 -0.5276 -0.1203
    9MOL    C4415852   8.566  -0.325   3.698 -0.1028 -0.3379 -0.0035
    9MOL    C4515853   8.494  -0.261   3.790  0.9165  0.3112 -0.1523
    9MOL    C4615854   8.544  -0.155   3.880  0.3994  0.7543 -0.1543
    9MOL    F1015855   8.497  -0.034   3.840  0.1876  0.0089 -0.6450
    9MOL    F1115856   8.515  -0.175   4.009  0.6752 -0.3689 -0.4249
    9MOL     H415857   8.672  -0.314   3.672  0.8171  0.9451 -0.7317
    9MOL     H515858   8.419  -0.670   3.641 -1.4632 -0.2707 -0.0379
    9MOL     H615859   8.495  -0.849   3.493  0.0454  2.7565  0.6394
    9MOL     H715860   8.677  -0.400   3.440 -0.9182  1.0676  2.5199
    9MOL     H815861   8.735  -0.588   3.265 -0.4618 -1.4022 -0.8965
    9MOL     H915862   8.921  -1.122   3.452 -1.0364  1.4265 -0.0319
    9MOL    H1015863   8.623  -1.395   3.311 -0.5666  0.3262  1.9966
    9MOL    H1115864   8.517  -1.212   3.188 -0.4758  1.4477  2.3837
    9MOL    H1215865   8.676  -1.239   3.623  0.6556 -0.5475  0.1479
    9MOL    H1315866   9.041  -1.458   3.689 -2.3657  1.6660  0.3577
    9MOL    H1415867   8.683  -1.151   3.854  1.0052 -0.7102  1.6947
    9MOL     O415868   9.168  -1.432   3.940 -0.3952 -0.3108 -0.5906
    9MOL    H1515869   8.261  -0.638   3.745 -0.8308  1.1600 -1.2747
    9MOL    H1615870   8.089  -0.772   3.630 -0.7862 -2.8006  0.6530
    9MOL    H1715871   8.231  -0.316   3.465 -2.4498  0.5350 -0.7965
    9MOL    H1815872   7.575  -0.491   3.526  2.1758 -1.8752 -1.2079
    9MOL    H1915873   7.757  -0.643   3.492  1.8064  1.3375  1.1686
    9MOL    H2015874   7.665  -0.315   3.139 -0.3334 -2.4107 -0.6750
    9MOL    H2115875   7.833  -0.490   3.102  0.1334 -3.6259 -2.9632
    9MOL    H2215876   7.871  -0.753   3.071 -2.3719 -0.3242 -2.5415
    9MOL    H2315877   8.078  -0.449   3.337  2.1915  0.3017 -0.5432
    9MOL    F1215878   8.676  -0.144   3.871 -0.1595  0.5280  0.5828
    9MOL    C4715879   8.247  -0.208   3.806  0.2207  0.6476  0.2517
    9MOL    H2415880   8.205  -0.176   3.707 -0.6029  1.6996 -0.7884
    9MOL    H2515881   8.289  -0.122   3.855 -1.5207 -0.7078 -0.5130
    9MOL    H2615882   8.167  -0.257   3.874 -0.1342  2.8662  0.4275
    9MOL     N115883   8.899  -0.857   3.935  0.1938  0.2460  0.2464
    9MOL     N215884   8.734  -0.789   4.078 -0.1735 -0.1668  0.0887
    9MOL     C115885   8.870  -0.823   4.071  0.1610  0.0125  0.5496
    9MOL     C215886   8.679  -0.712   4.178  0.0877  0.2134  0.3494
    9MOL     C315887   8.670  -0.752   4.310  0.1611 -0.2390  0.1263
    9MOL     C415888   8.594  -0.682   4.408  0.0127 -0.1367  0.1862
    9MOL     C515889   8.540  -0.564   4.369 -0.7850  1.3178  0.4148
    9MOL     C615890   8.562  -0.516   4.238 -0.0218 -0.0890  0.5142
    9MOL     C715891   8.630  -0.589   4.140 -0.8625  0.1739  0.4902
    9MOL     N315892   8.450  -0.488   4.447 -0.2614 -0.2108 -0.3576
    9MOL     C815893   8.470  -0.366   4.506 -0.0465  0.1338  0.0865
    9MOL     C915894   8.331  -0.321   4.551  0.1437  0.4147  0.3819
    9MOL    C1015895   8.242  -0.420   4.513 -0.4458 -0.0440 -0.5629
    9MOL    C1115896   8.315  -0.532   4.451  0.5068  0.1757 -0.3554
    9MOL     O115897   8.277  -0.642   4.422  0.3348  0.0195 -0.2921
    9MOL    C1215898   8.286  -0.202   4.596  0.3802 -0.3583  0.0464
    9MOL    C1315899   8.150  -0.174   4.603  0.4329  0.1907  0.1413
    9MOL    C1415900   8.059  -0.275   4.565 -0.5928 -0.1150 -0.7776
    9MOL    C1515901   8.108  -0.401   4.528 -0.9471 -0.7116 -0.9562
    9MOL    C1615902   8.191   0.059   4.526 -0.0422 -0.1281  0.3036
    9MOL    C1715903   8.249   0.190   4.570 -0.3741  0.2038 -0.0089
    9MOL    C1815904   8.313   0.264   4.468 -0.6246  0.0570  0.5359
    9MOL    C1915905   8.212   0.013   4.395  0.3233  0.0915 -0.1152
    9MOL    C2015906   8.339   0.215   4.341 -0.0582 -0.1176  0.1395
    9MOL    C2115907   8.290   0.089   4.306  0.1265  0.5693  0.3675
    9MOL    C2215908   8.111  -0.025   4.623 -0.2145  0.2177  0.0041
    9MOL    C2315909   7.956  -0.008   4.604 -0.2663  0.2922  0.4065
    9MOL     F115910   7.919   0.125   4.599 -0.6818  0.0316 -0.5120
    9MOL     F215911   7.874  -0.054   4.701 -0.0467  0.4207 -0.0283
    9MOL     F315912   7.918  -0.046   4.483  0.0265 -0.1664  0.3895
    9MOL    C2415913   8.135   0.008   4.774  0.2019 -0.5230  0.4971
    9MOL     F415914   8.081  -0.081   4.860  0.4165 -0.5871  0.0701
    9MOL     F515915   8.094   0.131   4.806 -0.4033  0.9109  0.1789
    9MOL     F615916   8.271   0.017   4.803  0.6092  0.9187 -0.6197
    9MOL     O215917   8.575  -0.303   4.507 -0.0650  0.0656 -0.1206
    9MOL    C2515918   8.357   0.406   4.466 -0.6658  0.0068 -0.2575
    9MOL     N415919   8.408   0.429   4.347  0.3933  0.1907  0.6608
    9MOL    C2615920   8.398   0.321   4.262 -0.7240  0.2310 -0.2633
    9MOL     O315921   8.440   0.315   4.147 -0.0278 -0.1920 -0.0610
    9MOL    C2715922   8.952  -0.818   4.184 -0.4355 -0.0159  0.0633
    9MOL    C2815923   8.934  -0.917   4.278 -0.8174  0.1797  0.4521
    9MOL    C2915924   9.060  -0.736   4.202 -0.2942  0.2801  0.4327
    9MOL    C3015925   9.009  -0.928   4.398 -0.0201  0.0598 -0.0060
    9MOL    C3115926   9.141  -0.741   4.321  0.8627  0.1079  0.1570
    9MOL    C3215927   9.120  -0.848   4.413  0.6238 -0.2354 -0.2553
    9MOL    C3315928   9.218  -0.893   4.493  0.4409 -0.3219  0.2786
    9MOL     N515929   9.299  -1.005   4.469  0.2509 -0.4778 -0.2591
    9MOL     N615930   9.272  -0.835   4.612 -0.1063  0.4440 -0.1350
    9MOL    C3415931   9.391  -1.017   4.570  0.2686 -0.2691  0.1767
    9MOL    C3515932   9.383  -0.907   4.650 -0.2348 -0.2719 -0.5227
    9MOL    C3615933   9.189  -0.741   4.693  0.1977 -0.2943 -0.3585
    9MOL     H115934   9.175  -0.628   4.654  0.1186  0.7480  0.8379
    9MOL     H215935   9.234  -0.738   4.793  0.8716 -0.0966  0.3537
    9MOL     H315936   9.103  -0.801   4.723  1.5339 -4.1524 -0.2204
    9MOL    C3715937   9.273  -1.095   4.367 -0.0501  0.1697  0.0951
    9MOL    C3815938   9.284  -1.045   4.234  0.8823 -0.4715 -0.2813
    9MOL    C3915939   9.216  -1.108   4.122  0.2661 -0.1719  0.3761
    9MOL    C4015940   9.128  -1.217   4.155 -0.3658 -0.2370 -0.1431
    9MOL    C4115941   9.120  -1.265   4.282  0.3535  0.1223 -0.3066
    9MOL    C4215942   9.192  -1.205   4.390  0.4050 -0.6055  0.2255
    9MOL    C4315943   9.456  -0.886   4.781  0.2598 -0.8854 -0.8663
    9MOL     F715944   9.522  -0.761   4.780  0.5813  0.3220 -0.0069
    9MOL     F815945   9.543  -0.981   4.821 -0.1598  0.0274  0.2076
    9MOL     F915946   9.366  -0.884   4.883 -0.3537 -0.0617 -0.0501
    9MOL    C4415947   8.681  -0.813   3.949  1.1794 -0.2384 -0.2240
    9MOL    C4515948   8.777  -0.854   3.874 -0.0901 -0.2584  0.4969
    9MOL    C4615949   8.775  -0.886   3.717  0.5932  0.1987  1.1025
    9MOL    F1015950   8.862  -0.980   3.664 -0.0154 -0.3730  0.0802
    9MOL    F1115951   8.647  -0.929   3.688 -0.0451  0.3248 -0.3349
    9MOL     H415952   8.581  -0.801   3.922 -0.3787  1.1394 -0.9525
    9MOL     H515953   8.731  -0.841   4.340  0.6546 -2.2204 -1.8060
    9MOL     H615954   8.590  -0.724   4.510 -1.3405 -1.0220 -0.1241
    9MOL     H715955   8.637  -0.555   4.041  2.8266  2.1976  2.4326
    9MOL     H815956   8.519  -0.419   4.205  0.1754  0.3874 -0.9581
    9MOL     H915957   8.359  -0.128   4.620  0.2115 -1.1656 -0.4510
    9MOL    H1015958   7.951  -0.264   4.571 -2.3357 -0.4816 -0.9408
    9MOL    H1115959   8.029  -0.466   4.496  0.6983 -4.3213  0.1606
    9MOL    H1215960   8.183  -0.088   4.367  1.1125 -1.1250  0.0777
    9MOL    H1315961   8.245   0.235   4.668 -0.4174  2.5384  0.6643
    9MOL    H1415962   8.304   0.045   4.212  0.5449 -2.6019  1.3423
    9MOL     O415963   8.353   0.488   4.557  0.2901 -0.0979  0.2828
    9MOL    H1515964   8.838  -0.966   4.265  1.5906  0.9150 -2.0836
    9MOL    H1615965   8.981  -1.001   4.471 -1.2700  2.2216 -0.8887
    9MOL    H1715966   9.080  -0.662   4.130 -3.8361 -2.0384  0.4503
    9MOL    H1815967   9.222  -1.070   4.022 -1.6418  0.3222  0.3214
    9MOL    H1915968   9.344  -0.959   4.221  0.3379 -1.1285 -0.8318
    9MOL    H2015969   9.048  -1.344   4.297 -0.8371 -1.8948 -1.1619
    9MOL    H2115970   9.180  -1.230   4.492  0.5688  1.0558  0.5549
    9MOL    H2215971   9.469  -1.093   4.559 -0.5826 -0.7150 -0.8249
    9MOL    H2315972   9.226  -0.678   4.326 -1.7259 -0.0025 -0.9800
    9MOL    F1215973   8.804  -0.777   3.647  1.0906  0.0711 -0.1221
    9MOL    C4715974   9.022  -0.809   3.864  0.2346  0.6909  0.6828
    9MOL    H2415975   9.013  -0.701   3.833  3.0315 -0.7669 -1.7484
    9MOL    H2515976   9.040  -0.853   3.770  1.0209 -2.2726 -0.5192
    9MOL    H2615977   9.108  -0.822   3.923 -0.4639 -0.6651  0.0640
    9MOL     N115978   8.365   0.268   3.638 -0.0981 -0.4350  0.1623
    9MOL     N215979   8.214   0.294   3.799  0.3444  0.1262 -0.1182
    9MOL     C115980   8.329   0.358   3.735 -0.3603  0.4989 -0.9068
    9MOL     C215981   8.133   0.345   3.897  0.8268  0.5964  0.4643
    9MOL     C315982   8.042   0.451   3.870 -0.7977  0.1265 -0.4489
    9MOL     C415983   7.940   0.478   3.963 -0.3496 -0.0751 -0.9741
    9MOL     C515984   7.948   0.423   4.096  1.0099 -0.5746 -0.4196
    9MOL     C615985   8.049   0.324   4.120  0.8682 -0.4566  0.7081
    9MOL     C715986   8.133   0.281   4.018 -0.4172 -0.4749  0.1277
    9MOL     N315987   7.862   0.475   4.202 -0.3143  0.4124 -0.0525
    9MOL     C815988   7.911   0.553   4.308  0.4184  0.1721  0.2064
    9MOL     C915989   7.789   0.582   4.389  0.1227  0.8564  0.7251
    9MOL    C1015990   7.677   0.518   4.334  0.0049  0.4337  0.4101
    9MOL    C1115991   7.726   0.453   4.206  0.3129  0.1019 -0.9397
    9MOL     O115992   7.668   0.375   4.135  0.1253 -0.0489 -0.3103
    9MOL    C1215993   7.775   0.660   4.504 -0.2295 -0.0511 -0.8711
    9MOL    C1315994   7.645   0.678   4.559  0.7711  0.3016 -0.6782
    9MOL    C1415995   7.536   0.598   4.509  0.6480 -0.9800  0.3095
    9MOL    C1515996   7.548   0.530   4.389 -0.4022 -0.2705 -0.0143
    9MOL    C1615997   7.746   0.774   4.761  0.2736 -0.3656  0.3814
    9MOL    C1715998   7.830   0.881   4.797  0.1942 -0.5741  0.1914
    9MOL    C1815999   7.936   0.860   4.886 -0.8903  0.8944 -0.3502
    9MOL    C1916000   7.766   0.645   4.816 -0.8349 -0.5006  0.0241
    9MOL    C2016001   7.954   0.736   4.943  0.4492  0.2928 -0.3662
    9MOL    C2116002   7.874   0.624   4.903 -0.0441 -0.1152  0.0305
    9MOL    C2216003   7.628   0.790   4.663  0.4344  0.3309  0.5724
    9MOL    C2316004   7.621   0.921   4.588 -0.4038 -0.9265 -0.5740
    9MOL     F116005   7.514   0.928   4.502  0.3580  0.6053  0.8635
    9MOL     F216006   7.734   0.946   4.520  0.3711 -0.5710 -0.2478
    9MOL     F316007   7.612   1.030   4.668  0.1524 -0.2083 -0.0194
    9MOL    C2416008   7.501   0.777   4.754  0.1138  0.4179  0.4880
    9MOL     F416009   7.497   0.883   4.847 -0.2948 -0.2808  0.5189
    9MOL     F516010   7.478   0.659   4.817  0.3776  0.2027 -0.2678
    9MOL     F616011   7.389   0.801   4.685 -0.2973  0.0758  0.2019
    9MOL     O216012   8.024   0.593   4.321 -0.2884 -0.6239 -0.2177
    9MOL    C2516013   8.038   0.952   4.945  0.2749 -0.2238 -0.1475
    9MOL     N416014   8.106   0.879   5.035 -0.2594 -0.2758  0.2895
    9MOL    C2616015   8.068   0.745   5.038 -0.5300  0.1693  0.8514
    9MOL     O316016   8.129   0.659   5.092  0.0165  0.4642  0.5819
    9MOL    C2716017   8.409   0.468   3.782  0.0560 -0.3990 -0.6950
    9MOL    C2816018   8.474   0.459   3.896 -0.4370  0.5078  0.4176
    9MOL    C2916019   8.415   0.587   3.707  0.2946  0.7133  0.2518
    9MOL    C3016020   8.570   0.553   3.933  0.2596  0.0047 -0.3522
    9MOL    C3116021   8.493   0.697   3.753 -0.7280  0.2661  0.2056
    9MOL    C3216022   8.578   0.677   3.865 -0.9255 -0.1480 -0.1704
    9MOL    C3316023   8.647   0.782   3.924 -0.3042  0.2274 -0.7763
    9MOL     N516024   8.639   0.833   4.056 -0.6454  0.2324 -0.1146
    9MOL     N616025   8.715   0.885   3.843  0.2079  0.0044  0.2898
    9MOL    C3416026   8.693   0.962   4.053  0.2997 -0.8052  0.1489
    9MOL    C3516027   8.731   0.999   3.929  0.1764  0.3192 -0.1139
    9MOL    C3616028   8.813   0.832   3.744 -0.2248 -0.0460 -0.4430
    9MOL     H116029   8.899   0.799   3.807  0.3887 -3.2232 -0.0927
    9MOL     H216030   8.846   0.919   3.680  1.5314 -0.0232  1.7366
    9MOL     H316031   8.775   0.755   3.686  0.7403 -2.4363 -0.4995
    9MOL    C3716032   8.576   0.767   4.156  0.1177 -0.0433  0.2298
    9MOL    C3816033   8.435   0.744   4.150  0.6396 -0.5640 -0.0253
    9MOL    C3916034   8.381   0.634   4.226 -0.2856 -0.2452 -0.5400
    9MOL    C4016035   8.460   0.552   4.301  0.3229  0.8091  0.3929
    9MOL    C4116036   8.602   0.573   4.309  0.3491  0.5052 -0.1963
    9MOL    C4216037   8.656   0.689   4.243 -0.2772  0.4138  0.1180
    9MOL    C4316038   8.795   1.132   3.891  0.4103 -1.1999  0.6964
    9MOL     F716039   8.843   1.150   3.759  0.0683 -0.0178  0.0013
    9MOL     F816040   8.903   1.150   3.962  0.1405 -0.4472 -0.1935
    9MOL     F916041   8.705   1.232   3.929  0.0663  0.2949 -0.0688
    9MOL    C4416042   8.181   0.183   3.722  0.0091  0.1376  0.3505
    9MOL    C4516043   8.268   0.172   3.628 -0.0517 -0.2152  0.0006
    9MOL    C4616044   8.273   0.060   3.533  0.0162 -0.1338 -0.1354
    9MOL    F1016045   8.168  -0.019   3.555  0.1070  0.5921  0.2881
    9MOL    F1116046   8.276   0.112   3.407  1.4797  0.2235 -0.2248
    9MOL     H416047   8.094   0.129   3.745  3.0426  1.4047  0.3501
    9MOL     H516048   8.037   0.494   3.768  1.6229 -0.2793  2.5818
    9MOL     H616049   7.862   0.547   3.938  2.5886 -0.5387  1.1891
    9MOL     H716050   8.209   0.203   4.032 -1.7531 -0.8833  2.1712
    9MOL     H816051   8.062   0.270   4.217 -0.5955  0.4806 -1.9495
    9MOL     H916052   7.856   0.734   4.525  0.8034  0.7602  0.4230
    9MOL    H1016053   7.441   0.599   4.557  0.1338  0.5264 -2.0761
    9MOL    H1116054   7.464   0.471   4.350 -1.7007  0.3119 -1.4423
    9MOL    H1216055   7.697   0.562   4.794 -1.9703  1.9309  1.4367
    9MOL    H1316056   7.815   0.973   4.746  1.3366  1.0979  1.6311
    9MOL    H1416057   7.897   0.527   4.939  0.0796 -1.0384  1.6311
    9MOL     O416058   8.061   1.064   4.912 -0.7556  0.0175 -0.6088
    9MOL    H1516059   8.466   0.371   3.945  4.0619  1.0132 -1.3711
    9MOL    H1616060   8.639   0.520   4.014 -0.4430 -0.0370  0.8432
    9MOL    H1716061   8.360   0.595   3.620 -1.2282  1.1973 -0.2582
    9MOL    H1816062   8.274   0.622   4.221  0.5570  0.0677 -0.5742
    9MOL    H1916063   8.373   0.806   4.082  0.3914  2.6910  0.1580
    9MOL    H2016064   8.675   0.506   4.364 -0.2643  0.6167  0.0906
    9MOL    H2116065   8.759   0.725   4.269 -1.2670  2.9707 -0.3219
    9MOL    H2216066   8.702   1.015   4.145 -1.4791 -1.0950  1.7669
    9MOL    H2316067   8.479   0.791   3.700 -1.3836  0.9732 -1.3389
    9MOL    F1216068   8.380  -0.016   3.557 -0.1657 -0.0754 -0.4127
    9MOL    C4716069   8.501   0.221   3.639  0.3594 -0.0162  0.1863
    9MOL    H2416070   8.542   0.192   3.537  0.0469  4.1415 -1.9106
    9MOL    H2516071   8.512   0.125   3.698  1.1402  0.0542  1.1210
    9MOL    H2616072   8.563   0.298   3.689  0.5012  3.0807  0.0043
    9MOL     N116073   8.089   0.594   5.396 -0.0879  0.0323 -0.2036
    9MOL     N216074   8.138   0.404   5.292  0.1040 -0.6694  0.5308
    9MOL     C116075   8.195   0.511   5.361  0.1608 -0.6037 -0.1770
    9MOL     C216076   8.206   0.303   5.238  0.3286  0.0389 -0.0396
    9MOL     C316077   8.263   0.310   5.104 -0.3225  0.1347 -0.4560
    9MOL     C416078   8.321   0.194   5.052  0.0865  0.6343 -0.3918
    9MOL     C516079   8.312   0.070   5.128 -0.4542  0.3017  0.9593
    9MOL     C616080   8.260   0.073   5.262 -0.0609  0.5464  0.2546
    9MOL     C716081   8.202   0.183   5.311  0.1838  0.5268 -0.4119
    9MOL     N316082   8.342  -0.064   5.080 -0.2435 -0.2965 -0.0206
    9MOL     C816083   8.279  -0.181   5.121 -0.2048 -0.0652 -0.1846
    9MOL     C916084   8.338  -0.290   5.041 -0.1260 -0.6152 -0.2305
    9MOL    C1016085   8.426  -0.236   4.956 -0.1593 -0.4253 -0.4610
    9MOL    C1116086   8.441  -0.097   4.986 -0.1197  0.2554  0.2237
    9MOL     O116087   8.521  -0.021   4.940 -0.5998 -0.3373 -0.6376
    9MOL    C1216088   8.311  -0.424   5.043  0.6782  0.2354 -0.0256
    9MOL    C1316089   8.358  -0.506   4.938  0.3739 -0.7454 -0.3236
    9MOL    C1416090   8.441  -0.445   4.842  0.0363  0.3237  0.1501
    9MOL    C1516091   8.475  -0.306   4.847 -0.0703 -0.0763  0.2274
    9MOL    C1616092   8.165  -0.656   4.964  0.1007  0.5300 -0.5554
    9MOL    C1716093   8.081  -0.569   4.889 -0.0515 -0.1034  0.1064
    9MOL    C1816094   7.955  -0.526   4.940  0.4479 -0.9005  0.5228
    9MOL    C1916095   8.110  -0.707   5.089 -0.1476  0.0054  1.0945
    9MOL    C2016096   7.914  -0.569   5.062 -0.0307  0.5211 -0.8467
    9MOL    C2116097   7.982  -0.665   5.133 -0.6521  0.5831 -0.2036
    9MOL    C2216098   8.319  -0.656   4.927 -0.2576 -0.5603  0.2924
    9MOL    C2316099   8.333  -0.722   4.786  0.1033  0.3529  0.4092
    9MOL     F116100   8.326  -0.856   4.797  0.3040  0.6821  0.3136
    9MOL     F216101   8.448  -0.713   4.727 -0.2038  0.6316  0.4254
    9MOL     F316102   8.241  -0.693   4.686 -0.2880 -0.6233  0.1450
    9MOL    C2416103   8.407  -0.732   5.032 -0.3621 -0.3609  0.7416
    9MOL     F416104   8.411  -0.670   5.152  0.0951  0.0862 -0.0586
    9MOL     F516105   8.535  -0.735   4.995  0.6314  0.3735 -0.0892
    9MOL     F616106   8.372  -0.860   5.045  0.0272  0.2201  0.0649
    9MOL     O216107   8.196  -0.195   5.209 -0.3327  0.2347 -0.2497
    9MOL    C2516108   7.863  -0.408   4.906 -0.5263  0.0065  0.1517
    9MOL     N416109   7.807  -0.375   5.027  0.0553 -0.2487 -0.2075
    9MOL    C2616110   7.818  -0.476   5.116 -0.5239 -0.1792  0.4844
    9MOL     O316111   7.746  -0.483   5.214 -0.2363 -0.4475 -0.0159
    9MOL    C2716112   8.330   0.554   5.346 -0.2582 -0.7573  0.1218
    9MOL    C2816113   8.372   0.603   5.229 -0.0577 -0.3398  0.1324
    9MOL    C2916114   8.415   0.565   5.458 -0.1294  0.1443  0.1193
    9MOL    C3016115   8.489   0.677   5.213 -0.5285 -0.2039  0.0543
    9MOL    C3116116   8.532   0.648   5.442  0.5923  0.4729  0.0178
    9MOL    C3216117   8.566   0.707   5.323  0.2907 -0.0239 -0.0927
    9MOL    C3316118   8.642   0.821   5.325  0.0761  0.0760 -0.0815
    9MOL     N516119   8.584   0.949   5.315  0.3862  0.1874 -0.0550
    9MOL     N616120   8.781   0.830   5.355  0.3500 -0.0140 -0.2142
    9MOL    C3416121   8.694   1.040   5.327 -0.3543 -0.1303 -0.2790
    9MOL    C3516122   8.805   0.967   5.349 -0.1085  0.4323 -0.6893
    9MOL    C3616123   8.841   0.759   5.469  0.2861  0.5486 -0.1450
    9MOL     H116124   8.815   0.809   5.566  0.0773 -0.7692 -2.4861
    9MOL     H216125   8.945   0.767   5.450 -2.2472 -2.0059 -2.2886
    9MOL     H316126   8.829   0.651   5.462  2.9612 -2.3592 -2.6473
    9MOL    C3716127   8.455   0.969   5.257  0.2936 -0.6141  0.8774
    9MOL    C3816128   8.339   0.923   5.325  0.6155  0.5928  0.3968
    9MOL    C3916129   8.224   0.902   5.256  0.3157  0.1194  0.2507
    9MOL    C4016130   8.217   0.927   5.117 -0.0940  0.8496 -0.0482
    9MOL    C4116131   8.324   0.979   5.048  0.2866 -0.4761  0.4109
    9MOL    C4216132   8.440   1.006   5.120 -0.3063  0.2904 -0.0631
    9MOL    C4316133   8.957   1.014   5.345  0.6063  0.1538 -0.7142
    9MOL     F716134   8.989   1.031   5.477  0.5350  0.1646  0.0982
    9MOL     F816135   8.971   1.128   5.280 -0.6977  0.4378  0.0571
    9MOL     F916136   9.035   0.921   5.295 -0.2685 -0.0554  0.0331
    9MOL    C4416137   8.004   0.446   5.267  0.2415 -0.2738 -0.8636
    9MOL    C4516138   7.974   0.554   5.334  0.0916 -0.4302 -0.4801
    9MOL    C4616139   7.849   0.636   5.324  0.3540 -0.0815 -0.4010
    9MOL    F1016140   7.779   0.633   5.439 -0.3432 -0.0973  0.2062
    9MOL    F1116141   7.886   0.762   5.290 -0.0783 -0.5226 -0.6126
    9MOL     H416142   7.953   0.392   5.193  1.9461  0.4754 -1.6207
    9MOL     H516143   8.275   0.407   5.051  0.6076  0.0195 -1.7087
    9MOL     H616144   8.361   0.197   4.953  0.9070  0.5412  0.2199
    9MOL     H716145   8.151   0.172   5.409 -0.5648 -1.6184  1.4534
    9MOL     H816146   8.260  -0.013   5.325  1.1849  0.3648  3.4079
    9MOL     H916147   8.229  -0.457   5.106 -1.0855 -0.5820  0.4946
    9MOL    H1016148   8.479  -0.500   4.755 -1.2488  0.2518 -0.9976
    9MOL    H1116149   8.532  -0.258   4.771 -0.4646  1.6794  0.0964
    9MOL    H1216150   8.165  -0.780   5.153  1.2823 -2.0505  0.8667
    9MOL    H1316151   8.119  -0.520   4.804 -2.8612  2.1650  0.0552
    9MOL    H1416152   7.944  -0.700   5.225  3.7386 -3.0449 -0.9114
    9MOL     O416153   7.844  -0.345   4.807 -0.4183  0.3473  0.4894
    9MOL    H1516154   8.316   0.568   5.138 -3.4029 -1.8618 -1.0184
    9MOL    H1616155   8.508   0.734   5.123  2.0236  0.7251  2.0704
    9MOL    H1716156   8.393   0.513   5.553  1.4029 -1.2798  0.0848
    9MOL    H1816157   8.137   0.848   5.301  0.1029 -2.1574 -3.3019
    9MOL    H1916158   8.342   0.884   5.422  1.9503 -0.8225 -0.9231
    9MOL    H2016159   8.313   0.995   4.939  0.4382 -1.0447 -0.0051
    9MOL    H2116160   8.519   1.042   5.059 -4.3620 -0.1823 -1.9674
    9MOL    H2216161   8.680   1.146   5.315 -0.7539 -2.2823 -0.0396
    9MOL    H2316162   8.593   0.666   5.533  1.5627  0.1582 -0.4490
    9MOL    F1216163   7.764   0.584   5.237  0.3791  0.5887  0.1464
    9MOL    C4716164   8.087   0.656   5.524 -0.0938 -0.3383 -0.1962
    9MOL    H2416165   7.998   0.642   5.588 -0.9284  3.3697  1.8870
    9MOL    H2516166   8.093   0.762   5.515  0.4935 -1.0502  0.8810
    9MOL    H2616167   8.171   0.616   5.580  0.0592  1.2996  0.8275
    9MOL     N116168   7.457   0.560   5.614 -0.0641  0.8011  0.6092
    9MOL     N216169   7.513   0.368   5.725  0.0991  0.6347 -0.3111
    9MOL     C116170   7.483   0.417   5.594  0.3390 -0.5610 -0.1322
    9MOL     C216171   7.573   0.243   5.760  0.4769  0.6438 -0.0580
    9MOL     C316172   7.666   0.184   5.671 -0.2785  0.3949  0.0313
    9MOL     C416173   7.725   0.061   5.710 -0.8115 -0.0515 -0.1317
    9MOL     C516174   7.701   0.013   5.842  0.0841  0.1871 -0.0599
    9MOL     C616175   7.613   0.074   5.927  0.1473 -0.2940 -0.3892
    9MOL     C716176   7.551   0.194   5.890  0.8253  0.7072 -0.2379
    9MOL     N316177   7.763  -0.104   5.891 -0.3203  0.0543  0.2597
    9MOL     C816178   7.695  -0.218   5.942 -0.0129 -0.4527  0.6058
    9MOL     C916179   7.793  -0.327   5.953 -0.0094 -0.8476  0.1392
    9MOL    C1016180   7.921  -0.277   5.918  0.1234  0.3295 -0.3179
    9MOL    C1116181   7.900  -0.134   5.871 -0.6229  0.6231 -0.4352
    9MOL     O116182   7.980  -0.060   5.819 -0.4102 -0.5331  0.4294
    9MOL    C1216183   7.776  -0.455   6.007  0.1588 -0.6438 -0.1255
    9MOL    C1316184   7.888  -0.547   6.020  0.0160  0.7259  0.0941
    9MOL    C1416185   8.012  -0.494   5.978 -0.0843  0.5165 -0.3192
    9MOL    C1516186   8.034  -0.362   5.930  0.3412  0.3459  0.6543
    9MOL    C1616187   7.782  -0.775   5.964 -0.5571  0.8796  0.0954
    9MOL    C1716188   7.729  -0.899   6.010  0.4279  0.1485  0.0862
    9MOL    C1816189   7.645  -0.976   5.928 -0.2839  0.0225  0.2574
    9MOL    C1916190   7.744  -0.726   5.838 -0.2282  0.1985  0.1937
    9MOL    C2016191   7.628  -0.935   5.799  0.2814 -0.0956 -0.5031
    9MOL    C2116192   7.675  -0.815   5.746 -0.9397 -0.2706 -0.4749
    9MOL    C2216193   7.872  -0.695   6.062  0.8225  0.3000 -0.1392
    9MOL    C2316194   8.006  -0.771   6.057 -0.6241 -0.3809 -0.0621
    9MOL     F116195   7.995  -0.893   6.123 -0.2723 -0.0095 -0.2358
    9MOL     F216196   8.110  -0.706   6.120  0.3163  0.5137  0.2140
    9MOL     F316197   8.055  -0.808   5.933 -0.2562  0.0000 -0.2679
    9MOL    C2416198   7.814  -0.692   6.208 -0.4654 -0.1924  0.8665
    9MOL     F416199   7.889  -0.601   6.278  0.3131  0.2196  0.6074
    9MOL     F516200   7.801  -0.797   6.276 -0.2809 -0.0313 -0.1653
    9MOL     F616201   7.688  -0.652   6.201 -0.1613  1.0798 -0.1279
    9MOL     O216202   7.579  -0.222   5.981 -0.0664  0.2267 -0.2809
    9MOL    C2516203   7.594  -1.117   5.943  0.4029 -0.9356 -0.0561
    9MOL     N416204   7.545  -1.153   5.815 -1.0656 -0.0849 -0.5441
    9MOL    C2616205   7.553  -1.046   5.724 -0.7823 -0.2143  0.0122
    9MOL     O316206   7.518  -1.055   5.604 -0.0231  0.0524 -0.7019
    9MOL    C2716207   7.493   0.349   5.473 -0.0261  0.2378  0.1039
    9MOL    C2816208   7.547   0.414   5.357  0.6334 -0.1130 -0.4955
    9MOL    C2916209   7.439   0.220   5.456 -0.1035 -0.8311 -0.0405
    9MOL    C3016210   7.550   0.358   5.230 -0.0549 -0.3587  1.0038
    9MOL    C3116211   7.427   0.173   5.325  0.0438  0.3137 -0.0547
    9MOL    C3216212   7.481   0.241   5.207 -0.0786  0.1816  0.0018
    9MOL    C3316213   7.469   0.195   5.073  0.4933 -0.1986  0.3752
    9MOL     N516214   7.556   0.118   4.992 -0.5064 -0.1497  0.0025
    9MOL     N616215   7.350   0.219   4.994  0.3965 -0.3072  0.1435
    9MOL    C3416216   7.526   0.161   4.866  0.8710 -0.0307  0.3474
    9MOL    C3516217   7.411   0.228   4.868  0.4564  0.5232 -0.1410
    9MOL    C3616218   7.240   0.126   5.022  0.4675 -0.9572 -0.3206
    9MOL     H116219   7.285   0.026   5.016 -2.2747  0.8353 -1.6998
    9MOL     H216220   7.165   0.140   4.947  0.1195 -2.5323  0.4929
    9MOL     H316221   7.186   0.150   5.116 -2.8028  2.0547 -1.4388
    9MOL    C3716222   7.610  -0.009   5.017 -0.0010  0.0302 -0.1221
    9MOL    C3816223   7.528  -0.126   5.016  0.0121  0.1119  0.4901
    9MOL    C3916224   7.588  -0.255   5.022 -0.1353  0.7675 -0.0483
    9MOL    C4016225   7.727  -0.260   5.045  0.1480 -0.2619 -0.5134
    9MOL    C4116226   7.803  -0.143   5.051  0.3817  0.1063 -0.7438
    9MOL    C4216227   7.748  -0.012   5.040  0.2959  0.2255 -0.2332
    9MOL    C4316228   7.346   0.297   4.751 -0.1223 -0.1222  0.7283
    9MOL     F716229   7.216   0.269   4.731 -0.1169  0.5670  0.1792
    9MOL     F816230   7.408   0.276   4.637  0.6173  0.5804  0.5094
    9MOL     F916231   7.345   0.432   4.779 -0.1597 -0.2889  0.0686
    9MOL    C4416232   7.460   0.464   5.813 -0.2401  0.2853  0.3905
    9MOL    C4516233   7.430   0.578   5.754 -0.5474  0.6148 -0.2191
    9MOL    C4616234   7.345   0.689   5.814  0.6429 -0.1309  0.8742
    9MOL    F1016235   7.286   0.658   5.932 -0.2606 -0.3914 -0.1741
    9MOL    F1116236   7.432   0.783   5.845 -0.6776  0.2481  0.0893
    9MOL     H416237   7.436   0.440   5.913 -0.5303  2.8429 -2.7630
    9MOL     H516238   7.691   0.228   5.569  1.5080  0.5932  0.8826
    9MOL     H616239   7.787   0.002   5.647 -2.2156  1.8324  0.2563
    9MOL     H716240   7.487   0.250   5.957 -0.5376  0.8107 -0.1301
    9MOL     H816241   7.604   0.036   6.026  4.8167 -1.3528 -1.3734
    9MOL     H916242   7.680  -0.484   6.041  0.1741 -0.6237 -1.2910
    9MOL    H1016243   8.106  -0.549   5.970 -0.2264  0.7967  0.5620
    9MOL    H1116244   8.133  -0.337   5.896  1.7683 -1.2433  0.6060
    9MOL    H1216245   7.785  -0.629   5.802  0.7867  1.2682  1.0631
    9MOL    H1316246   7.747  -0.939   6.108 -3.4242  3.3887 -2.8977
    9MOL    H1416247   7.649  -0.796   5.646  1.0919  0.5917  0.1432
    9MOL     O416248   7.620  -1.195   6.036  0.0521  0.3407 -0.0213
    9MOL    H1516249   7.591   0.512   5.367 -2.9181  0.6032  0.8192
    9MOL    H1616250   7.600   0.415   5.152  0.3423  2.6306 -1.8498
    9MOL    H1716251   7.401   0.164   5.540 -1.0340 -0.9401 -1.5685
    9MOL    H1816252   7.519  -0.342   5.004 -1.5338  0.0222 -2.0698
    9MOL    H1916253   7.421  -0.113   4.997 -0.6716 -0.2619  1.4528
    9MOL    H2016254   7.911  -0.141   5.088 -0.1265 -1.1858 -0.8317
    9MOL    H2116255   7.812   0.079   5.045 -1.7503  0.1877  0.2496
    9MOL    H2216256   7.583   0.140   4.776 -0.4100  0.7219  0.2667
    9MOL    H2316257   7.380   0.075   5.313  1.0298 -3.5586  1.2656
    9MOL    F1216258   7.249   0.734   5.738  0.4686  0.5093  0.1733
    9MOL    C4716259   7.405   0.654   5.507 -0.4512 -0.3931 -0.6805
    9MOL    H2416260   7.432   0.760   5.523 -1.6314 -0.7189 -1.9662
    9MOL    H2516261   7.296   0.639   5.498 -0.4790 -2.0561 -0.5295
    9MOL    H2616262   7.448   0.622   5.408  0.8658 -1.5624 -1.9691
    9MOL     N116263   7.948  -1.186   5.549  0.0147 -0.0536 -0.2925
    9MOL     N216264   8.022  -1.146   5.342  0.0081  0.6822 -0.2179
    9MOL     C116265   7.946  -1.235   5.422  0.0042  0.1027  0.2510
    9MOL     C216266   8.079  -1.180   5.216  0.6228 -0.0670 -0.0678
    9MOL     C316267   8.028  -1.288   5.141 -0.1352 -0.4439 -0.4449
    9MOL     C416268   8.072  -1.315   5.015 -0.5408  0.0063  0.1759
    9MOL     C516269   8.190  -1.253   4.969  0.6343  0.3437 -0.0731
    9MOL     C616270   8.244  -1.143   5.035  0.0114 -0.0542  0.5455
    9MOL     C716271   8.185  -1.109   5.159 -0.8461 -0.1591 -0.2445
    9MOL     N316272   8.256  -1.303   4.856  0.0723 -0.4124  0.1503
    9MOL     C816273   8.286  -1.222   4.748  0.0099 -0.2812  1.0534
    9MOL     C916274   8.384  -1.297   4.666  0.4404  0.2433 -0.1640
    9MOL    C1016275   8.397  -1.421   4.727  0.2376 -0.1102  0.0397
    9MOL    C1116276   8.316  -1.429   4.854 -1.2483 -0.1075 -0.1846
    9MOL     O116277   8.311  -1.513   4.935 -0.3813 -0.1315 -0.3248
    9MOL    C1216278   8.446  -1.269   4.549  0.0621  1.0039  0.1347
    9MOL    C1316279   8.526  -1.365   4.484  0.5020  1.0603  0.0112
    9MOL    C1416280   8.531  -1.498   4.544  0.6615  0.4109 -0.2201
    9MOL    C1516281   8.476  -1.523   4.669 -0.3412  0.6208 -0.0881
    9MOL    C1616282   8.550  -1.463   4.245  0.1074 -0.4748  0.5043
    9MOL    C1716283   8.627  -1.489   4.130 -0.3900  0.1553  0.0174
    9MOL    C1816284   8.569  -1.576   4.034  0.1219  0.0915  0.9136
    9MOL    C1916285   8.427  -1.520   4.262 -0.1421  0.2129  0.1152
    9MOL    C2016286   8.448  -1.636   4.050 -0.1770 -0.0711 -0.1224
    9MOL    C2116287   8.379  -1.611   4.169  0.2748  0.0838  0.9574
    9MOL    C2216288   8.596  -1.351   4.344  0.0436 -0.1278  0.3915
    9MOL    C2316289   8.569  -1.209   4.280 -0.1051  0.4317 -0.3773
    9MOL     F116290   8.635  -1.102   4.338 -0.9766 -0.2247 -0.0285
    9MOL     F216291   8.434  -1.171   4.271  0.4410  0.2137  0.0510
    9MOL     F316292   8.620  -1.210   4.153 -0.0230  0.4562  0.2200
    9MOL    C2416293   8.747  -1.372   4.379  1.0678  0.6507  0.5178
    9MOL     F416294   8.786  -1.308   4.496 -0.0175  0.4567  0.1687
    9MOL     F516295   8.831  -1.311   4.292 -0.4339 -0.1659 -0.5039
    9MOL     F616296   8.783  -1.504   4.394  0.4550  0.3943  0.0761
    9MOL     O216297   8.250  -1.106   4.731 -0.9674  0.7282 -0.5175
    9MOL    C2516298   8.616  -1.608   3.899  0.4131 -0.1407  0.6796
    9MOL     N416299   8.525  -1.697   3.843 -0.0111  0.1590 -0.3606
    9MOL    C2616300   8.420  -1.722   3.927  0.7044  0.1762  0.0925
    9MOL     O316301   8.337  -1.810   3.909 -0.3523  0.7210 -0.0026
    9MOL    C2716302   7.853  -1.331   5.388  0.2509 -0.0144 -0.3045
    9MOL    C2816303   7.868  -1.466   5.424  0.1301  0.3657 -0.1085
    9MOL    C2916304   7.733  -1.282   5.331 -0.0296  0.5165  0.5222
    9MOL    C3016305   7.756  -1.549   5.416 -0.6330 -0.1533  0.1989
    9MOL    C3116306   7.625  -1.371   5.324 -0.1978  0.6612 -0.3008
    9MOL    C3216307   7.631  -1.503   5.368 -0.1919  0.0781 -0.5818
    9MOL    C3316308   7.523  -1.583   5.382  0.5583 -0.0583 -1.0197
    9MOL     N516309   7.474  -1.611   5.514 -0.3689  0.7115 -0.0364
    9MOL     N616310   7.493  -1.692   5.300 -0.1057  0.7967 -0.2948
    9MOL    C3416311   7.435  -1.749   5.506 -0.5325  0.0685 -0.4987
    9MOL    C3516312   7.449  -1.797   5.384 -0.3935 -0.0982  0.7062
    9MOL    C3616313   7.435  -1.676   5.164 -0.6446 -0.1799  0.0699
    9MOL     H116314   7.491  -1.732   5.079 -0.5888 -0.6386 -1.0799
    9MOL     H216315   7.435  -1.573   5.129  4.3501 -1.0189 -2.2942
    9MOL     H316316   7.328  -1.716   5.154  0.1660  1.1689  1.5651
    9MOL    C3716317   7.478  -1.522   5.621 -0.0610 -0.0125  0.2509
    9MOL    C3816318   7.372  -1.432   5.622 -0.5714  0.2223 -0.6273
    9MOL    C3916319   7.383  -1.320   5.705 -0.3428 -0.3922 -0.8905
    9MOL    C4016320   7.507  -1.290   5.771 -0.4552  0.1588 -0.1000
    9MOL    C4116321   7.604  -1.388   5.770  0.4582  0.7795  0.4728
    9MOL    C4216322   7.588  -1.512   5.707 -0.6666 -0.5231 -0.2792
    9MOL    C4316323   7.442  -1.944   5.343  0.6097  0.4827  0.4939
    9MOL     F716324   7.557  -1.979   5.283 -0.9025  0.0281  0.6990
    9MOL     F816325   7.338  -1.954   5.250 -0.6104  0.4732 -0.2382
    9MOL     F916326   7.419  -2.026   5.445  0.3334 -0.2223 -0.4219
    9MOL    C4416327   8.049  -1.035   5.428  0.2757  0.1187  0.3945
    9MOL    C4516328   8.007  -1.055   5.550 -0.2511  0.2835 -0.1353
    9MOL    C4616329   8.014  -0.960   5.668 -1.1669 -0.1975  0.3279
    9MOL    F1016330   7.930  -0.981   5.769 -0.1419  0.2713  0.0252
    9MOL    F1116331   8.142  -0.979   5.716  0.0683 -0.0946 -0.3755
    9MOL     H416332   8.095  -0.941   5.389  0.6492 -0.0239 -2.3616
    9MOL     H516333   7.950  -1.351   5.174  0.1625  0.4643  0.7794
    9MOL     H616334   8.024  -1.388   4.955  0.4299  1.0985 -0.7919
    9MOL     H716335   8.225  -1.021   5.205 -0.7596  1.6466  2.5801
    9MOL     H816336   8.331  -1.093   4.993 -1.0664 -1.1979 -2.6656
    9MOL     H916337   8.437  -1.179   4.504  1.4575 -1.8971  2.4744
    9MOL    H1016338   8.574  -1.582   4.488  0.1660 -1.4130  1.3212
    9MOL    H1116339   8.491  -1.619   4.714 -1.9995  2.1638 -0.0148
    9MOL    H1216340   8.372  -1.487   4.346 -1.8389 -1.6502  1.4457
    9MOL    H1316341   8.720  -1.438   4.117  1.2900 -0.8062  1.2246
    9MOL    H1416342   8.278  -1.661   4.183  1.1228  1.4211  0.9731
    9MOL     O416343   8.718  -1.567   3.839  0.6899 -0.1599  0.5201
    9MOL    H1516344   7.956  -1.511   5.465  1.2925  0.6802  1.0145
    9MOL    H1616345   7.763  -1.647   5.458  0.5396  0.2097 -0.1387
    9MOL    H1716346   7.712  -1.184   5.303 -0.8150  3.0850  2.2285
    9MOL    H1816347   7.299  -1.251   5.708 -0.6110 -1.5403 -1.9346
    9MOL    H1916348   7.285  -1.450   5.563 -0.1161 -0.0545  1.2321
    9MOL    H2016349   7.701  -1.364   5.811 -1.4885 -1.8945  0.4365
    9MOL    H2116350   7.675  -1.581   5.708 -1.4913 -0.1713 -0.8069
    9MOL    H2216351   7.421  -1.795   5.604  0.9042  0.2921  1.2605
    9MOL    H2316352   7.534  -1.337   5.281  1.1644  2.8442  2.0352
    9MOL    F1216353   8.002  -0.837   5.626 -0.0877 -0.0138 -0.2177
    9MOL    C4716354   7.860  -1.235   5.653 -0.1235 -0.0559 -0.4454
    9MOL    H2416355   7.761  -1.211   5.619  0.8466  1.9735  2.6940
    9MOL    H2516356   7.884  -1.195   5.750 -0.6573 -1.0895 -1.0512
    9MOL    H2616357   7.867  -1.348   5.644  1.2552  0.1950 -1.9052
    9MOL     N116358   7.863  -2.013   3.736 -0.7648  0.2040  0.0318
    9MOL     N216359   7.969  -1.845   3.853  0.1816 -0.4144 -0.3390
    9MOL     C116360   7.967  -1.916   3.729 -0.7117 -0.6471  0.2045
    9MOL     C216361   8.021  -1.721   3.885  1.0623 -0.8659 -0.0552
    9MOL     C316362   8.070  -1.637   3.791  0.1720  0.1812 -0.1906
    9MOL     C416363   8.143  -1.519   3.813  0.0203 -0.4741  0.7113
    9MOL     C516364   8.155  -1.475   3.943 -0.3727  0.1379 -0.4518
    9MOL     C616365   8.093  -1.551   4.042  0.1679 -0.3560 -0.7304
    9MOL     C716366   8.042  -1.681   4.019 -0.3145 -0.1408 -0.2970
    9MOL     N316367   8.191  -1.341   3.974  0.1386 -0.0468  0.5237
    9MOL     C816368   8.093  -1.256   4.012 -0.4740  0.1040 -0.4624
    9MOL     C916369   8.162  -1.124   4.020 -0.7707  0.7151  0.0191
    9MOL    C1016370   8.295  -1.141   4.002  0.1185  0.0800 -0.0164
    9MOL    C1116371   8.311  -1.288   3.969 -0.2041 -0.2458 -0.5403
    9MOL     O116372   8.424  -1.338   3.961 -0.3778 -0.0047  0.0366
    9MOL    C1216373   8.113  -0.995   4.052  0.3891 -0.6034  0.0170
    9MOL    C1316374   8.189  -0.879   4.055  0.2777 -0.5856  0.4167
    9MOL    C1416375   8.332  -0.904   4.022  0.5427  0.2475  0.3505
    9MOL    C1516376   8.385  -1.033   3.999  0.6021 -0.6576 -0.0521
    9MOL    C1616377   8.051  -0.750   4.241  0.2206  0.1662  0.3488
    9MOL    C1716378   7.946  -0.659   4.271  0.1496  0.2600  0.4142
    9MOL    C1816379   7.877  -0.668   4.391  0.0078  0.1034 -0.0700
    9MOL    C1916380   8.070  -0.854   4.334  0.0625 -0.1220 -0.0845
    9MOL    C2016381   7.899  -0.774   4.478 -0.2281  0.1752 -0.3106
    9MOL    C2116382   7.995  -0.874   4.448  0.2226  0.6243  0.1988
    9MOL    C2216383   8.127  -0.741   4.098  0.4846  0.3018  0.5987
    9MOL    C2316384   8.234  -0.619   4.098  0.4104  0.4192  0.3237
    9MOL     F116385   8.271  -0.591   3.968  0.1344  0.1578  0.0570
    9MOL     F216386   8.342  -0.650   4.164  1.0353 -0.8538 -0.4085
    9MOL     F316387   8.186  -0.500   4.143  0.0337  0.1377  0.4501
    9MOL    C2416388   8.027  -0.721   3.978  0.0674 -0.1908 -0.5483
    9MOL     F416389   8.078  -0.765   3.860  0.5528 -0.0903  0.0865
    9MOL     F516390   7.989  -0.590   3.967 -0.1375 -0.3539  0.3914
    9MOL     F616391   7.909  -0.791   3.996 -0.3114 -0.1008  0.5836
    9MOL     O216392   7.976  -1.289   4.038 -0.0379 -0.1185  0.5320
    9MOL    C2516393   7.764  -0.578   4.450 -0.4067  0.6857 -0.4672
    9MOL     N416394   7.711  -0.652   4.556 -0.3448 -0.5788  0.0106
    9MOL    C2616395   7.790  -0.767   4.575 -0.0086 -0.2433  0.3378
    9MOL     O316396   7.766  -0.842   4.667  0.4323 -0.0330 -0.8585
    9MOL    C2716397   8.058  -1.898   3.623 -0.4143 -0.3721 -0.0019
    9MOL    C2816398   8.192  -1.901   3.649  0.0918  0.4644  0.0184
    9MOL    C2916399   8.016  -1.908   3.485 -0.1971  0.0737 -0.8264
    9MOL    C3016400   8.287  -1.931   3.555 -0.1579  0.4864  0.1462
    9MOL    C3116401   8.117  -1.916   3.392 -0.0748  0.1332  0.2211
    9MOL    C3216402   8.252  -1.935   3.422 -0.4621 -0.2337  0.0468
    9MOL    C3316403   8.349  -1.942   3.321 -0.3034  1.0630 -0.1625
    9MOL     N516404   8.471  -1.870   3.322 -0.5428  0.3201  0.6901
    9MOL     N616405   8.348  -2.009   3.193 -0.6978 -0.7818 -0.3529
    9MOL    C3416406   8.536  -1.898   3.197  0.1596 -0.3375  0.1333
    9MOL    C3516407   8.468  -1.980   3.121 -0.2967  0.2697 -0.0226
    9MOL    C3616408   8.262  -2.130   3.163 -0.2759 -0.6235  0.5431
    9MOL     H116409   8.286  -2.168   3.068  2.7596  1.7033  3.2397
    9MOL     H216410   8.157  -2.108   3.172 -0.0876 -0.8757  1.9773
    9MOL     H316411   8.283  -2.207   3.235 -4.4464  1.6735  1.8488
    9MOL    C3716412   8.517  -1.802   3.436  0.2754 -0.0701 -0.6223
    9MOL    C3816413   8.430  -1.700   3.489 -0.2205 -0.9642  0.4235
    9MOL    C3916414   8.437  -1.662   3.629 -0.1396  0.6584  0.3739
    9MOL    C4016415   8.534  -1.728   3.710  0.1867 -0.0142 -0.4626
    9MOL    C4116416   8.624  -1.822   3.657  0.8733 -0.3047 -0.5658
    9MOL    C4216417   8.613  -1.860   3.521  0.5544 -0.3148 -0.2348
    9MOL    C4316418   8.515  -2.031   2.981  0.1697  0.6396 -0.1431
    9MOL     F716419   8.428  -2.114   2.912  0.5487  0.0641 -0.2761
    9MOL     F816420   8.628  -2.097   2.995 -0.5684  0.5448  0.6769
    9MOL     F916421   8.529  -1.934   2.893 -0.0789  0.4451  0.0644
    9MOL    C4416422   7.880  -1.916   3.934  0.1711  0.4451  0.7285
    9MOL    C4516423   7.810  -2.004   3.862  0.6710  0.0500  0.2618
    9MOL    C4616424   7.709  -2.104   3.919  0.4857  0.4069 -0.0521
    9MOL    F1016425   7.638  -2.038   4.011 -0.1807 -0.0641 -0.4001
    9MOL    F1116426   7.630  -2.159   3.824  0.5695 -0.5169  0.1472
    9MOL     H416427   7.861  -1.898   4.035  0.0497  3.2942 -1.4519
    9MOL     H516428   8.067  -1.671   3.688  1.3421 -0.7992 -0.1827
    9MOL     H616429   8.162  -1.447   3.731  1.3568 -1.4674  0.6487
    9MOL     H716430   8.012  -1.739   4.103  0.8484  1.0704  0.8596
    9MOL     H816431   8.083  -1.502   4.145 -2.5167  0.4528  1.8016
    9MOL     H916432   8.005  -0.995   4.075 -1.9439 -1.4983 -1.4931
    9MOL    H1016433   8.406  -0.826   4.034  0.7778  1.3758  0.6513
    9MOL    H1116434   8.492  -1.049   3.984 -1.6859  1.3732  0.7110
    9MOL    H1216435   8.145  -0.932   4.305  1.4333 -0.1347 -0.5229
    9MOL    H1316436   7.931  -0.578   4.198 -0.5679 -1.7605  0.0729
    9MOL    H1416437   8.015  -0.962   4.519  0.5184  0.0796 -2.8110
    9MOL     O416438   7.719  -0.479   4.399 -0.2641 -0.0044 -0.4668
    9MOL    H1516439   8.220  -1.892   3.754  1.3698 -0.8496  1.1199
    9MOL    H1616440   8.383  -1.953   3.588  0.2476  0.5405  0.7854
    9MOL    H1716441   7.912  -1.922   3.460  0.9432 -0.8396  0.9654
    9MOL    H1816442   8.370  -1.578   3.669 -2.6861  2.8089  5.9643
    9MOL    H1916443   8.344  -1.667   3.429  0.5773  1.5590  0.9089
    9MOL    H2016444   8.690  -1.880   3.716 -1.2999  0.8947  0.1727
    9MOL    H2116445   8.678  -1.941   3.481  2.1901 -0.8919 -1.3627
    9MOL    H2216446   8.637  -1.867   3.176 -0.4923  2.5562 -1.8233
    9MOL    H2316447   8.082  -1.916   3.290  0.2107 -0.3750 -0.8074
    9MOL    F1216448   7.768  -2.209   3.976 -0.4706  0.1161  0.1664
    9MOL    C4716449   7.893  -2.140   3.667  0.1387  0.1494 -0.7307
    9MOL    H2416450   7.834  -2.149   3.575  1.5078  1.6347  1.8393
    9MOL    H2516451   7.870  -2.228   3.725  0.8788  4.9681  1.6193
    9MOL    H2616452   7.997  -2.141   3.643  0.9103  3.4383  0.5991
    9MOL     N116453   7.524  -1.012   4.365 -0.9280  0.3296  0.3323
    9MOL     N216454   7.603  -1.200   4.473 -0.1150 -0.6587  0.2916
    9MOL     C116455   7.506  -1.099   4.480 -0.0824 -0.6302 -0.0623
    9MOL     C216456   7.579  -1.321   4.536  0.5857  0.5356  0.0540
    9MOL     C316457   7.555  -1.319   4.678 -0.3705 -0.4228  0.0006
    9MOL     C416458   7.493  -1.422   4.743 -0.1774 -0.2424  0.1769
    9MOL     C516459   7.449  -1.535   4.666 -0.3442  0.0825  0.4236
    9MOL     C616460   7.488  -1.549   4.527  0.9405 -0.4216  0.0959
    9MOL     C716461   7.547  -1.434   4.459 -0.2144 -0.4824 -0.4174
    9MOL     N316462   7.343  -1.615   4.715 -0.4121  0.0071 -0.1256
    9MOL     C816463   7.216  -1.609   4.660 -0.7452  0.2821 -0.1624
    9MOL     C916464   7.137  -1.714   4.739  0.3340  0.1908 -0.4155
    9MOL    C1016465   7.220  -1.757   4.838 -0.8270  0.4962  0.6964
    9MOL    C1116466   7.354  -1.700   4.821  0.1355  0.2616 -0.0752
    9MOL     O116467   7.453  -1.731   4.876 -0.5670 -0.2442  0.8429
    9MOL    C1216468   7.005  -1.746   4.734  0.7416 -0.6878  0.1403
    9MOL    C1316469   6.950  -1.834   4.823 -0.4824 -0.8472  0.5732
    9MOL    C1416470   7.036  -1.884   4.920  0.2354 -1.0257  0.3662
    9MOL    C1516471   7.175  -1.849   4.929  0.2849 -0.9744  0.2870
    9MOL    C1616472   6.717  -1.739   4.778  0.9992  0.0257  0.5020
    9MOL    C1716473   6.731  -1.642   4.874  0.2723 -0.3797 -0.1277
    9MOL    C1816474   6.672  -1.514   4.864 -0.3805  0.1304  0.0213
    9MOL    C1916475   6.640  -1.712   4.668 -0.4056  0.3755  0.9464
    9MOL    C2016476   6.594  -1.486   4.753  0.6351 -0.4716  0.2968
    9MOL    C2116477   6.571  -1.586   4.655 -0.5123 -0.2748  0.7766
    9MOL    C2216478   6.800  -1.867   4.799  0.1353 -0.6496  0.4483
    9MOL    C2316479   6.824  -1.969   4.676  0.5078 -0.2366 -0.2014
    9MOL     F116480   6.845  -1.916   4.551  0.5228 -0.3650  0.0829
    9MOL     F216481   6.715  -2.052   4.658 -0.2117 -0.2344  0.0017
    9MOL     F316482   6.918  -2.060   4.705 -0.6955 -0.0739 -0.1279
    9MOL    C2416483   6.721  -1.941   4.915 -0.8122  0.4471  0.7093
    9MOL     F416484   6.753  -2.069   4.914  0.0698  0.0841 -0.4349
    9MOL     F516485   6.583  -1.940   4.907  0.0384 -0.1216  0.2999
    9MOL     F616486   6.762  -1.894   5.038  0.1184  0.1453  0.1794
    9MOL     O216487   7.179  -1.527   4.570  0.1436  0.3384  0.1336
    9MOL    C2516488   6.692  -1.392   4.940  0.1316  0.0453 -0.1831
    9MOL     N416489   6.612  -1.294   4.872  0.0191 -0.1915  0.3514
    9MOL    C2616490   6.543  -1.350   4.765  0.1781  0.1225 -0.0126
    9MOL     O316491   6.478  -1.288   4.680  0.0381 -0.2379  0.4113
    9MOL    C2716492   7.437  -1.058   4.599  0.0619  0.6478  0.2064
    9MOL    C2816493   7.508  -0.992   4.699  0.8387  0.0210  0.0737
    9MOL    C2916494   7.297  -1.069   4.604  0.4747 -0.3023  0.4529
    9MOL    C3016495   7.440  -0.942   4.810 -0.4029 -0.1371 -0.6240
    9MOL    C3116496   7.233  -1.003   4.705 -0.2901 -0.2446  0.6706
    9MOL    C3216497   7.297  -0.939   4.815 -0.0252  0.0455  0.6276
    9MOL    C3316498   7.231  -0.841   4.884  0.0442 -0.8380 -0.0291
    9MOL     N516499   7.247  -0.701   4.861 -0.0985  0.3765  0.1660
    9MOL     N616500   7.111  -0.853   4.954 -0.4865 -0.3203 -0.2059
    9MOL    C3416501   7.151  -0.635   4.939 -0.4783 -0.4936 -0.6729
    9MOL    C3516502   7.076  -0.724   4.998 -0.1659  0.2810 -0.0199
    9MOL    C3616503   7.032  -0.976   4.950  0.0422  0.0420  0.4267
    9MOL     H116504   6.963  -0.980   4.864 -3.7229 -1.3497 -0.5320
    9MOL     H216505   6.987  -0.977   5.047  3.1099 -1.5574 -2.0009
    9MOL     H316506   7.099  -1.067   4.942  0.7841 -0.0445  0.9249
    9MOL    C3716507   7.353  -0.653   4.782 -0.5542 -0.7019  0.1395
    9MOL    C3816508   7.347  -0.656   4.641 -0.1193 -0.7256 -0.1115
    9MOL    C3916509   7.461  -0.627   4.570  0.5846  0.6501 -0.2373
    9MOL    C4016510   7.588  -0.616   4.629 -0.6633 -0.6423 -0.6030
    9MOL    C4116511   7.594  -0.621   4.767 -0.0073 -0.3663  0.4808
    9MOL    C4216512   7.476  -0.637   4.842  0.2547 -0.3633  0.0032
    9MOL    C4316513   6.963  -0.707   5.101  0.6610 -0.1350 -0.0647
    9MOL     F716514   7.021  -0.752   5.221  0.8513 -0.4583 -0.6256
    9MOL     F816515   6.842  -0.768   5.078 -0.0875  0.1126  0.5482
    9MOL     F916516   6.930  -0.582   5.124  0.1480  0.1807  0.2504
    9MOL    C4416517   7.660  -1.188   4.344  0.2301 -0.3600 -0.3188
    9MOL    C4516518   7.615  -1.083   4.279 -0.4006 -0.8230 -0.1318
    9MOL    C4616519   7.649  -1.031   4.143  0.1831 -0.4092 -0.1786
    9MOL    F1016520   7.731  -1.126   4.087 -0.1485 -0.2735  0.3220
    9MOL    F1116521   7.539  -1.029   4.064 -0.0870 -0.2828  0.1810
    9MOL     H416522   7.723  -1.271   4.297  0.0632 -2.3623 -0.6251
    9MOL     H516523   7.566  -1.222   4.723 -3.0727 -1.6798  0.0630
    9MOL     H616524   7.456  -1.399   4.838  1.7014  1.7520  0.8660
    9MOL     H716525   7.556  -1.441   4.351 -1.0318 -1.6946  1.1282
    9MOL     H816526   7.443  -1.620   4.462  0.0769 -2.2218 -2.6897
    9MOL     H916527   6.948  -1.699   4.647 -2.0311  0.0334 -1.8152
    9MOL    H1016528   7.007  -1.958   4.990 -0.1985 -1.7763  0.8445
    9MOL    H1116529   7.242  -1.881   5.005  1.1942  0.8510 -0.0114
    9MOL    H1216530   6.634  -1.791   4.590  0.7401  0.5993  0.1282
    9MOL    H1316531   6.793  -1.665   4.956  0.1366 -1.9287  0.9366
    9MOL    H1416532   6.505  -1.567   4.574  0.1823 -0.3272  1.2599
    9MOL     O416533   6.766  -1.370   5.037  0.7952 -0.3757 -0.0995
    9MOL    H1516534   7.615  -1.005   4.703  1.9696 -0.7516 -0.7145
    9MOL    H1616535   7.502  -0.891   4.894  0.7750  0.7657 -0.3292
    9MOL    H1716536   7.250  -1.125   4.527 -0.3830  2.1455  3.0691
    9MOL    H1816537   7.470  -0.636   4.462 -0.1050  0.2894 -3.4343
    9MOL    H1916538   7.257  -0.682   4.580  0.0582  3.0229  0.9824
    9MOL    H2016539   7.691  -0.625   4.827 -1.4587 -1.6828 -0.1041
    9MOL    H2116540   7.483  -0.655   4.951  2.7994  0.6278 -0.7633
    9MOL    H2216541   7.140  -0.522   4.935  0.1577  0.6828 -1.1802
    9MOL    H2316542   7.123  -0.994   4.689  2.7458  1.0227 -0.7750
    9MOL    F1216543   7.706  -0.911   4.139 -0.5272  0.3983  0.5936
    9MOL    C4716544   7.517  -0.864   4.374  0.2122 -0.1253  0.3051
    9MOL    H2416545   7.418  -0.834   4.394  0.2523 -0.9219  0.6377
    9MOL    H2516546   7.549  -0.810   4.284  2.0587  1.3627 -1.1783
    9MOL    H2616547   7.584  -0.840   4.460  3.0222 -1.6244  3.7456
    9MOL     N116548   6.681  -1.321   4.434  0.0505 -0.1566  0.3534
    9MOL     N216549   6.550  -1.202   4.284 -0.5519 -0.4626 -0.1713
    9MOL     C116550   6.625  -1.194   4.407  0.6417 -1.0975  0.8332
    9MOL     C216551   6.502  -1.087   4.223 -0.0423  0.6173 -0.6825
    9MOL     C316552   6.388  -1.027   4.277  0.4674  0.3399  0.0765
    9MOL     C416553   6.361  -0.895   4.239 -0.5114  0.1740 -0.0056
    9MOL     C516554   6.434  -0.830   4.138  0.3278  0.0179  0.2482
    9MOL     C616555   6.545  -0.889   4.078  0.0194 -0.3053  0.2728
    9MOL     C716556   6.576  -1.017   4.129  0.7214  0.0668 -0.3561
    9MOL     N316557   6.393  -0.697   4.111 -0.6184 -0.1857  0.1801
    9MOL     C816558   6.478  -0.599   4.150  0.0729  0.9597 -0.3576
    9MOL     C916559   6.402  -0.476   4.111  0.1501 -0.2982  0.1388
    9MOL    C1016560   6.288  -0.506   4.043  0.4281 -0.0806  0.0677
    9MOL    C1116561   6.277  -0.655   4.048 -0.0267  0.4333  0.3575
    9MOL     O116562   6.184  -0.731   4.024 -0.3037  0.8255 -0.2080
    9MOL    C1216563   6.441  -0.343   4.124 -0.1991 -0.3699  0.1459
    9MOL    C1316564   6.370  -0.240   4.061  0.4567  0.6571  0.1784
    9MOL    C1416565   6.252  -0.273   3.991  0.1919 -0.4471 -0.1813
    9MOL    C1516566   6.207  -0.406   3.985 -0.1591  0.1670  0.2399
    9MOL    C1616567   6.585  -0.144   4.003  0.3650  0.2986  0.6802
    9MOL    C1716568   6.704  -0.093   4.053 -0.1368  0.7096 -0.1893
    9MOL    C1816569   6.830  -0.129   4.003 -0.0864  0.2542  0.1415
    9MOL    C1916570   6.594  -0.242   3.902 -0.2613 -0.0977  0.0856
    9MOL    C2016571   6.838  -0.231   3.905 -0.8555 -0.0020 -0.3695
    9MOL    C2116572   6.721  -0.298   3.864  0.0004 -0.5697  0.2252
    9MOL    C2216573   6.445  -0.107   4.055  0.6672 -0.1516 -1.0610
    9MOL    C2316574   6.390  -0.007   3.948 -0.1017 -0.2429  0.1973
    9MOL     F116575   6.277   0.058   3.998  0.4369 -0.0460  0.4272
    9MOL     F216576   6.356  -0.055   3.824 -0.3400  0.1462  0.8093
    9MOL     F316577   6.480   0.088   3.928 -0.4772  0.4607 -0.1579
    9MOL    C2416578   6.448  -0.043   4.198  0.1024 -0.3073 -0.6900
    9MOL     F416579   6.495   0.085   4.204  0.0681 -0.8455 -0.0693
    9MOL     F516580   6.513  -0.119   4.294 -0.0970  0.3396  0.1698
    9MOL     F616581   6.322  -0.043   4.253 -0.0907  0.0806 -0.7578
    9MOL     O216582   6.586  -0.604   4.210 -0.1915 -0.0856 -0.2467
    9MOL    C2516583   6.966  -0.084   4.029  0.3248  0.7341 -0.0122
    9MOL     N416584   7.048  -0.178   3.963  0.3786  0.3828 -0.3514
    9MOL    C2616585   6.978  -0.265   3.887  0.7058 -0.6226 -0.3006
    9MOL     O316586   7.036  -0.359   3.832  0.4782 -0.4445 -0.3606
    9MOL    C2716587   6.609  -1.094   4.498 -0.3110  0.1120  0.1987
    9MOL    C2816588   6.483  -1.058   4.549  0.4992 -0.1376 -0.7953
    9MOL    C2916589   6.715  -1.000   4.500  0.7594  0.4101  0.6457
    9MOL    C3016590   6.465  -0.940   4.614 -0.2659  0.0653 -0.2023
    9MOL    C3116591   6.691  -0.882   4.562 -0.0010  0.5848  0.0783
    9MOL    C3216592   6.566  -0.850   4.618  0.3359  0.2866  0.1355
    9MOL    C3316593   6.558  -0.736   4.703 -0.2066 -1.0912  0.1430
    9MOL     N516594   6.571  -0.742   4.843 -0.2314 -0.2869 -0.5897
    9MOL     N616595   6.598  -0.612   4.657  0.0491  0.3018  0.9414
    9MOL    C3416596   6.647  -0.621   4.868  0.3058 -0.1614  0.1095
    9MOL    C3516597   6.661  -0.549   4.759  0.7179 -0.4950 -0.4344
    9MOL    C3616598   6.564  -0.568   4.519  0.5137 -0.0163 -0.1100
    9MOL     H116599   6.630  -0.481   4.497 -0.2496 -0.1652 -3.5354
    9MOL     H216600   6.455  -0.544   4.496  1.8360  0.4451 -2.3382
    9MOL     H316601   6.597  -0.649   4.445  5.7085 -2.5648 -2.5702
    9MOL    C3716602   6.597  -0.867   4.898 -0.3146 -0.2939 -0.6357
    9MOL    C3816603   6.720  -0.931   4.864 -0.1031 -0.3259 -0.1645
    9MOL    C3916604   6.728  -1.074   4.856  0.5723  0.0153 -0.8176
    9MOL    C4016605   6.615  -1.151   4.899 -0.0348  0.0186  0.2913
    9MOL    C4116606   6.494  -1.090   4.937 -0.5881  0.3494 -0.7512
    9MOL    C4216607   6.488  -0.951   4.930  0.4727  0.0763  0.2534
    9MOL    C4316608   6.696  -0.395   4.750  0.3626  0.2996  0.8322
    9MOL     F716609   6.621  -0.317   4.652 -0.0811  0.6408 -0.4740
    9MOL     F816610   6.824  -0.371   4.726 -0.2005  0.0082  0.1128
    9MOL     F916611   6.673  -0.337   4.876 -0.2271 -0.1283 -0.1247
    9MOL    C4416612   6.565  -1.328   4.244 -0.3308 -0.0248 -0.6912
    9MOL    C4516613   6.639  -1.401   4.325 -0.3974  0.6967  0.0030
    9MOL    C4616614   6.704  -1.533   4.294 -0.5607  0.3542 -0.1330
    9MOL    F1016615   6.842  -1.516   4.260 -0.6317  0.0211  0.2082
    9MOL    F1116616   6.695  -1.625   4.393 -0.0538 -0.7650  0.3033
    9MOL     H416617   6.522  -1.355   4.148 -1.1060  0.8490  0.4752
    9MOL     H516618   6.343  -1.061   4.366  3.7814  0.5956  0.5934
    9MOL     H616619   6.281  -0.840   4.289  0.5976  0.3559  1.2205
    9MOL     H716620   6.665  -1.060   4.086  0.4043  0.8895  0.0193
    9MOL     H816621   6.610  -0.838   4.008 -0.7137 -4.3822 -2.8676
    9MOL     H916622   6.533  -0.331   4.177 -0.2718  0.2251 -1.3782
    9MOL    H1016623   6.209  -0.200   3.918  0.1910 -0.7736 -0.8216
    9MOL    H1116624   6.123  -0.425   3.922 -2.0118  0.8149  0.7995
    9MOL    H1216625   6.502  -0.290   3.857 -1.5464 -2.3634 -0.9078
    9MOL    H1316626   6.692  -0.011   4.123 -0.3135  1.0415  2.4213
    9MOL    H1416627   6.732  -0.378   3.789  0.1319 -2.9078  0.5087
    9MOL     O416628   7.011   0.014   4.088 -0.2270  0.2943  0.1993
    9MOL    H1516629   6.393  -1.127   4.544  0.5901  0.8806 -0.5876
    9MOL    H1616630   6.373  -0.914   4.663  0.2248 -0.1203 -1.4151
    9MOL    H1716631   6.809  -1.006   4.433  1.8905  1.2593 -1.5129
    9MOL    H1816632   6.813  -1.120   4.819 -2.4811 -2.2074  2.9238
    9MOL    H1916633   6.799  -0.872   4.826 -1.2964 -1.9331  1.7164
    9MOL    H2016634   6.398  -1.149   4.951 -3.2110 -1.0773 -0.1575
    9MOL    H2116635   6.384  -0.911   4.930  0.6460  1.8181 -0.0449
    9MOL    H2216636   6.680  -0.597   4.970 -0.3991 -2.1924 -0.6929
    9MOL    H2316637   6.775  -0.808   4.574 -1.5198  3.0494  1.5195
    9MOL    F1216638   6.646  -1.591   4.190 -0.3695 -0.3217 -0.6329
    9MOL    C4716639   6.818  -1.335   4.494 -0.4519  0.9995  0.3047
    9MOL    H2416640   6.879  -1.248   4.458 -2.4367  1.3989  3.5563
    9MOL    H2516641   6.867  -1.423   4.454 -2.8073 -0.7732  2.6009
    9MOL    H2616642   6.816  -1.349   4.606  0.7827  0.1787 -2.2973
    9MOL     N116643   7.106  -0.508   4.243 -0.1231 -0.1049  0.3320
    9MOL     N216644   7.164  -0.721   4.230 -0.0409 -0.1882 -0.1302
    9MOL     C116645   7.189  -0.599   4.174 -0.3252  0.5279 -0.3543
    9MOL     C216646   7.188  -0.845   4.168  0.5970  0.0981 -0.1323
    9MOL     C316647   7.205  -0.862   4.026  0.1213 -0.4448 -0.2226
    9MOL     C416648   7.200  -0.996   3.974  0.0993 -0.2069  0.4313
    9MOL     C516649   7.201  -1.103   4.062  0.1684  0.5920  0.2293
    9MOL     C616650   7.197  -1.084   4.203 -1.1779  0.4234 -0.1055
    9MOL     C716651   7.194  -0.954   4.252  0.3603  0.9356  0.4053
    9MOL     N316652   7.197  -1.236   4.017  0.3210  0.2612 -0.2198
    9MOL     C816653   7.114  -1.331   4.072 -0.7691  0.3039  0.2541
    9MOL     C916654   7.168  -1.461   4.028 -0.1110 -0.0674 -0.1673
    9MOL    C1016655   7.278  -1.444   3.950 -0.5808  0.4359 -0.3789
    9MOL    C1116656   7.299  -1.292   3.938 -0.6892  0.1215  0.0139
    9MOL     O116657   7.381  -1.231   3.864 -0.9714  0.1413 -0.2686
    9MOL    C1216658   7.105  -1.588   4.043  0.6898  0.1258 -0.3672
    9MOL    C1316659   7.151  -1.699   3.972  0.4075  0.4012 -0.2532
    9MOL    C1416660   7.266  -1.685   3.890  0.1800 -0.1542  0.0336
    9MOL    C1516661   7.331  -1.557   3.881 -0.1180  0.0005  0.0027
    9MOL    C1616662   7.061  -1.886   4.122  0.9784  0.0514  0.2431
    9MOL    C1716663   6.947  -1.954   4.183  0.0290 -0.5274  0.2219
    9MOL    C1816664   6.964  -2.043   4.293 -0.6128  0.1952  0.0085
    9MOL    C1916665   7.178  -1.883   4.201  0.1849 -0.0276  1.2270
    9MOL    C2016666   7.084  -2.045   4.358  0.1182 -0.0059  0.0251
    9MOL    C2116667   7.187  -1.953   4.325  0.7230 -0.0133  0.7688
    9MOL    C2216668   7.054  -1.825   3.975  0.6415 -0.1110  0.0231
    9MOL    C2316669   6.908  -1.772   3.951  0.2964  1.0454 -0.3254
    9MOL     F116670   6.901  -1.682   3.850 -0.9193  0.0777 -0.3879
    9MOL     F216671   6.847  -1.718   4.057  0.1500 -0.3745 -0.4813
    9MOL     F316672   6.828  -1.873   3.911 -0.1967 -0.4141 -0.2202
    9MOL    C2416673   7.097  -1.936   3.878  0.1028 -0.2249 -0.1688
    9MOL     F416674   7.013  -2.035   3.873 -0.5183 -0.5534 -0.2221
    9MOL     F516675   7.217  -1.988   3.915  0.4400 -0.2235 -0.6688
    9MOL     F616676   7.107  -1.884   3.754 -0.3068 -0.0389  0.5355
    9MOL     O216677   7.013  -1.313   4.137 -0.3322 -0.2108  0.0689
    9MOL    C2516678   6.875  -2.155   4.350  0.9674 -0.7588  0.0958
    9MOL     N416679   6.964  -2.231   4.431  0.3422  0.2082  0.2968
    9MOL    C2616680   7.084  -2.159   4.452  0.6398  0.3221  0.6740
    9MOL     O316681   7.163  -2.192   4.532  0.2231  0.0401 -0.3621
    9MOL    C2716682   7.291  -0.569   4.083 -0.2625  0.2519  0.3152
    9MOL    C2816683   7.258  -0.496   3.973  0.1742  0.6332  0.0121
    9MOL    C2916684   7.426  -0.585   4.111 -0.1873  0.0687 -0.2731
    9MOL    C3016685   7.356  -0.449   3.886  0.4613  0.2064  0.1831
    9MOL    C3116686   7.526  -0.519   4.038  0.1124 -0.2495 -0.6708
    9MOL    C3216687   7.491  -0.457   3.917 -0.4035 -0.3010  0.1690
    9MOL    C3316688   7.580  -0.383   3.843  0.0654 -1.0284 -0.0413
    9MOL     N516689   7.568  -0.242   3.821 -0.1798  0.4010 -0.1665
    9MOL     N616690   7.702  -0.425   3.785  0.1241 -0.0229  0.1445
    9MOL    C3416691   7.666  -0.217   3.721  0.3720  0.3138  0.0372
    9MOL    C3516692   7.746  -0.320   3.707 -0.6277  0.1481 -0.3636
    9MOL    C3616693   7.735  -0.564   3.761 -0.2920  0.2378 -0.1471
    9MOL     H116694   7.796  -0.582   3.676 -0.0353 -1.5694  0.8804
    9MOL     H216695   7.646  -0.627   3.759  1.6734 -0.6676 -3.2996
    9MOL     H316696   7.789  -0.606   3.844  0.2212 -0.6659 -2.6530
    9MOL    C3716697   7.459  -0.168   3.865 -0.1468 -0.2798  0.4179
    9MOL    C3816698   7.423  -0.161   4.000 -0.6763  0.2258  0.8665
    9MOL    C3916699   7.284  -0.159   4.032  0.2781  0.0854 -0.4973
    9MOL    C4016700   7.183  -0.151   3.931 -0.2107  0.1235 -0.0440
    9MOL    C4116701   7.228  -0.134   3.800  0.7396  0.0006  0.3483
    9MOL    C4216702   7.360  -0.144   3.766  0.1659 -0.5971  0.3593
    9MOL    C4316703   7.886  -0.323   3.640 -0.0303  0.3222  0.0688
    9MOL     F716704   7.978  -0.423   3.677  0.1494 -0.0696 -0.1919
    9MOL     F816705   7.944  -0.203   3.674 -0.2449  0.0912  0.0746
    9MOL     F916706   7.872  -0.327   3.508 -0.2412 -0.4769 -0.2423
    9MOL    C4416707   7.080  -0.704   4.335  0.1328 -0.0184 -0.1828
    9MOL    C4516708   7.046  -0.578   4.350 -0.2933  0.1449 -0.3108
    9MOL    C4616709   6.949  -0.512   4.450 -0.1358  0.2105  0.2215
    9MOL    F1016710   6.832  -0.495   4.394 -0.0819 -0.1393 -0.3913
    9MOL    F1116711   6.940  -0.595   4.559  0.1496 -0.0902 -0.1701
    9MOL     H416712   7.050  -0.786   4.401  1.8393  1.4014  0.4904
    9MOL     H516713   7.203  -0.775   3.961 -1.9118 -1.9889  0.1666
    9MOL     H616714   7.187  -1.022   3.863 -0.1993  1.2233 -1.5570
    9MOL     H716715   7.175  -0.938   4.357  2.6961 -1.2868 -0.1185
    9MOL     H816716   7.181  -1.162   4.277 -2.7070  1.4750 -1.9304
    9MOL     H916717   7.022  -1.599   4.114 -0.5628 -2.3211 -4.2284
    9MOL    H1016718   7.293  -1.763   3.823 -0.1235 -2.1854 -0.6298
    9MOL    H1116719   7.415  -1.555   3.818 -2.0906 -1.8397  1.4014
    9MOL    H1216720   7.264  -1.825   4.180  0.9485  0.9669  0.2972
    9MOL    H1316721   6.857  -1.962   4.131  1.6252 -1.0836  0.0372
    9MOL    H1416722   7.275  -1.959   4.378 -1.5067  0.1093  0.5367
    9MOL     O416723   6.755  -2.187   4.329  0.0026 -0.9108 -0.0682
    9MOL    H1516724   7.151  -0.494   3.947 -2.1837 -0.0988  0.1770
    9MOL    H1616725   7.329  -0.400   3.789 -2.7374 -1.4021 -2.9336
    9MOL    H1716726   7.451  -0.638   4.201 -1.6434  1.2980  0.9696
    9MOL    H1816727   7.250  -0.153   4.138  2.3839 -0.7309  0.1492
    9MOL    H1916728   7.491  -0.194   4.081 -0.5851 -3.5057  0.1938
    9MOL    H2016729   7.146  -0.129   3.718 -2.9069 -0.3041  0.8932
    9MOL    H2116730   7.394  -0.128   3.660  1.0334 -0.6602 -0.8328
    9MOL    H2216731   7.686  -0.116   3.689 -0.2767 -0.7230  0.4689
    9MOL    H2316732   7.628  -0.528   4.073  1.0543 -1.5011 -0.0778
    9MOL    F1216733   6.992  -0.387   4.482 -0.2145  0.3634 -0.3915
    9MOL    C4716734   7.042  -0.386   4.192  0.3528 -0.1547 -0.6650
    9MOL    H2416735   7.111  -0.300   4.208 -1.1759  1.9487  2.8629
    9MOL    H2516736   6.951  -0.371   4.247 -0.7458  1.6397  2.0300
    9MOL    H2616737   7.012  -0.413   4.086 -1.1553  1.3753  0.4394
    9MOL     N116738   7.370  -2.346   4.319 -0.4923  0.1497 -0.1950
    9MOL     N216739   7.592  -2.348   4.353 -0.3462  0.6425  0.1437
    9MOL     C116740   7.470  -2.408   4.396  0.4068  0.0839  0.6161
    9MOL     C216741   7.713  -2.340   4.415 -0.3974  0.1950  0.0623
    9MOL     C316742   7.816  -2.431   4.378 -0.8251 -0.2648  0.8672
    9MOL     C416743   7.950  -2.391   4.404 -0.3108 -0.4630  0.0351
    9MOL     C516744   7.975  -2.272   4.470  0.4225 -0.8083  0.2118
    9MOL     C616745   7.870  -2.193   4.525  0.1118  0.3806 -0.5599
    9MOL     C716746   7.735  -2.225   4.495 -0.0082 -0.3774 -0.4725
    9MOL     N316747   8.095  -2.212   4.467 -0.2198 -0.6201  0.0054
    9MOL     C816748   8.188  -2.231   4.559 -0.5547 -0.5635 -0.1175
    9MOL     C916749   8.305  -2.149   4.510  0.3984  0.1499  0.5082
    9MOL    C1016750   8.265  -2.085   4.395 -0.6657 -0.2361  0.0762
    9MOL    C1116751   8.129  -2.132   4.360  1.0255  0.5406 -0.0389
    9MOL     O116752   8.047  -2.096   4.269  0.1180  0.1863 -0.5544
    9MOL    C1216753   8.435  -2.126   4.565 -0.1476  0.9848  0.2135
    9MOL    C1316754   8.521  -2.037   4.499 -1.1136  0.1353 -1.0077
    9MOL    C1416755   8.478  -1.973   4.381  0.7823 -0.4678  0.0801
    9MOL    C1516756   8.354  -2.002   4.326  0.1564  0.0928 -0.1255
    9MOL    C1616757   8.652  -1.983   4.720  0.1939  0.2163 -0.2465
    9MOL    C1716758   8.545  -1.903   4.758 -0.0137 -0.0547 -0.4048
    9MOL    C1816759   8.517  -1.880   4.893  0.7539  0.5293 -0.8414
    9MOL    C1916760   8.734  -2.033   4.826  0.0502 -0.1106 -0.4215
    9MOL    C2016761   8.597  -1.929   4.991 -0.3290  0.8614 -1.6080
    9MOL    C2116762   8.702  -2.008   4.958 -0.5730 -0.1263  1.3476
    9MOL    C2216763   8.668  -2.015   4.570  0.2055  0.1226  0.8236
    9MOL    C2316764   8.737  -2.148   4.550  0.3357  0.0132  0.4199
    9MOL     F116765   8.723  -2.192   4.421 -0.0614  0.0097  0.2963
    9MOL     F216766   8.698  -2.253   4.637  0.4053 -0.2580 -0.1105
    9MOL     F316767   8.869  -2.144   4.578 -0.2744 -0.5001 -0.1900
    9MOL    C2416768   8.752  -1.900   4.497 -0.4149 -0.3066 -0.0771
    9MOL     F416769   8.882  -1.893   4.528  0.4354  0.1063  0.2111
    9MOL     F516770   8.698  -1.779   4.525  0.2598 -0.0403  0.0148
    9MOL     F616771   8.757  -1.914   4.362  0.6511 -0.0583  0.1955
    9MOL     O216772   8.189  -2.311   4.651  0.2581  0.0445 -0.0271
    9MOL    C2516773   8.397  -1.827   4.959  0.1366 -0.6689 -0.1283
    9MOL     N416774   8.424  -1.831   5.096  0.1534  0.2333  0.0378
    9MOL    C2616775   8.542  -1.888   5.127 -0.2297  0.2851  0.0704
    9MOL     O316776   8.575  -1.914   5.236  0.3119  0.2432  0.6726
    9MOL    C2716777   7.435  -2.482   4.510 -0.0639  0.0636 -0.0306
    9MOL    C2816778   7.327  -2.427   4.582 -0.3684 -0.1644 -0.2008
    9MOL    C2916779   7.451  -2.623   4.526  0.3143  0.2535 -0.1570
    9MOL    C3016780   7.245  -2.504   4.664  0.4383  0.0665 -0.5324
    9MOL    C3116781   7.369  -2.700   4.612 -0.1015  0.5240 -0.2401
    9MOL    C3216782   7.262  -2.642   4.678 -0.2600  0.6863  0.2144
    9MOL    C3316783   7.155  -2.725   4.725  0.0538 -0.0686  0.1089
    9MOL     N516784   7.014  -2.711   4.699  0.4423 -0.5244  0.1888
    9MOL     N616785   7.173  -2.851   4.790 -0.0066  0.0041 -0.6125
    9MOL    C3416786   6.961  -2.838   4.728  0.4392 -0.5546 -0.2260
    9MOL    C3516787   7.055  -2.910   4.793  0.4265 -0.3965 -0.7624
    9MOL    C3616788   7.297  -2.898   4.855  0.2155  0.7004  0.5645
    9MOL     H116789   7.286  -2.948   4.951 -1.0612 -0.2342 -0.5857
    9MOL     H216790   7.367  -2.814   4.852  0.3068 -0.6985  2.9152
    9MOL     H316791   7.337  -2.971   4.781  0.2156  1.1795 -0.8078
    9MOL    C3716792   6.957  -2.610   4.620  0.0556  0.1803 -0.3883
    9MOL    C3816793   6.898  -2.496   4.684  0.5092 -0.1466 -0.0861
    9MOL    C3916794   6.891  -2.371   4.621  0.4906  0.7954  0.1453
    9MOL    C4016795   6.935  -2.361   4.490  0.3080 -0.0706  0.5701
    9MOL    C4116796   6.984  -2.471   4.423 -0.0564 -0.5469  0.5663
    9MOL    C4216797   6.995  -2.595   4.484  0.2730 -0.0235  0.4365
    9MOL    C4316798   7.021  -3.047   4.855 -0.7307  0.4669 -1.0057
    9MOL     F716799   7.132  -3.120   4.895  0.0019  0.2619  0.1621
    9MOL     F816800   6.955  -3.116   4.767  0.0604 -0.3254 -0.5539
    9MOL     F916801   6.948  -3.032   4.971  0.3230 -0.0968 -0.1833
    9MOL    C4416802   7.567  -2.272   4.239  0.1102  0.0492 -0.1537
    9MOL    C4516803   7.434  -2.264   4.222 -0.5788  0.5409 -0.3938
    9MOL    C4616804   7.349  -2.207   4.110  0.1482 -0.1152 -0.0368
    9MOL    F1016805   7.220  -2.182   4.136 -0.3818  0.0227 -0.2206
    9MOL    F1116806   7.396  -2.092   4.073  0.3048  0.3018  0.0164
    9MOL     H416807   7.654  -2.230   4.186  1.9862 -0.8665  1.5830
    9MOL     H516808   7.786  -2.516   4.319  0.0427  1.6810  0.6710
    9MOL     H616809   8.033  -2.451   4.371 -2.2457  1.3703 -0.0440
    9MOL     H716810   7.659  -2.156   4.518  0.5968 -1.7801  1.6028
    9MOL     H816811   7.890  -2.101   4.579 -2.3672  0.1698 -0.5560
    9MOL     H916812   8.464  -2.181   4.657  0.4085  2.2676  0.3703
    9MOL    H1016813   8.541  -1.888   4.336  2.5040 -1.9003 -0.5061
    9MOL    H1116814   8.338  -1.963   4.222  1.6545 -0.1511 -0.6734
    9MOL    H1216815   8.824  -2.083   4.798  0.4153  2.1992  0.1818
    9MOL    H1316816   8.481  -1.872   4.683 -0.4080 -0.1960 -2.1489
    9MOL    H1416817   8.762  -2.044   5.044  0.3879 -0.4602  4.3418
    9MOL     O416818   8.296  -1.791   4.902  0.3542  0.0796 -0.3796
    9MOL    H1516819   7.318  -2.323   4.587 -1.4911 -0.6391  3.5645
    9MOL    H1616820   7.175  -2.454   4.724 -0.1050 -1.7501  1.7483
    9MOL    H1716821   7.519  -2.683   4.465 -0.1477  0.1082  2.2132
    9MOL    H1816822   6.858  -2.283   4.680  3.1199 -1.0227  0.8673
    9MOL    H1916823   6.854  -2.504   4.783  0.7229 -2.6505  1.8178
    9MOL    H2016824   7.011  -2.464   4.322  0.1095  2.1134  4.3175
    9MOL    H2116825   7.039  -2.681   4.431  1.3425 -2.3103  1.7968
    9MOL    H2216826   6.853  -2.868   4.725  3.5458 -1.5935  2.2692
    9MOL    H2316827   7.375  -2.814   4.608 -0.3221 -1.7610  0.9490
    9MOL    F1216828   7.347  -2.282   3.998 -0.1635 -0.1933 -0.3260
    9MOL    C4716829   7.260  -2.423   4.274 -0.0325  0.0669 -0.0243
    9MOL    H2416830   7.279  -2.461   4.170  0.2349 -3.2186  0.6732
    9MOL    H2516831   7.171  -2.363   4.270 -0.2288 -0.5635 -0.6414
    9MOL    H2616832   7.245  -2.510   4.337  2.1148 -2.5077  0.1063
    9MOL     N116833   7.618  -2.107   4.956 -0.3022 -0.1077 -0.5262
    9MOL     N216834   7.846  -2.127   4.905  0.5562  0.0106 -0.3539
    9MOL     C116835   7.749  -2.067   4.997  0.3406 -0.0562 -0.0665
    9MOL     C216836   7.978  -2.155   4.941  0.2317 -0.0032 -0.2391
    9MOL     C316837   7.990  -2.238   5.057  0.5233 -0.0625 -0.3921
    9MOL     C416838   8.116  -2.277   5.104 -0.2547 -0.2186  0.1562
    9MOL     C516839   8.230  -2.241   5.033  0.7789  0.3228  0.7327
    9MOL     C616840   8.226  -2.165   4.916 -0.6109 -0.0760 -0.2239
    9MOL     C716841   8.097  -2.113   4.877  0.6800 -0.0432  0.0022
    9MOL     N316842   8.349  -2.287   5.077 -0.0948  0.3422 -0.0783
    9MOL     C816843   8.396  -2.243   5.198  0.5431  0.8178 -0.1325
    9MOL     C916844   8.499  -2.344   5.240  0.4484  0.9572 -0.4259
    9MOL    C1016845   8.518  -2.439   5.138 -0.1567 -0.2266  0.8815
    9MOL    C1116846   8.411  -2.409   5.038  0.7040  0.2376  0.3921
    9MOL     O116847   8.380  -2.471   4.940  0.6541 -1.0201 -0.0931
    9MOL    C1216848   8.584  -2.333   5.350 -0.1814  0.0975  0.9538
    9MOL    C1316849   8.676  -2.436   5.366  0.2103 -0.8758 -0.3546
    9MOL    C1416850   8.683  -2.545   5.272  0.4594  0.5764  0.7085
    9MOL    C1516851   8.609  -2.543   5.152 -0.4249  0.4347 -0.2272
    9MOL    C1616852   8.844  -2.279   5.442  0.2110 -0.1610 -0.1244
    9MOL    C1716853   8.894  -2.261   5.310  0.3876 -0.3697 -0.0837
    9MOL    C1816854   8.934  -2.136   5.265  0.2369  0.0500 -0.8770
    9MOL    C1916855   8.847  -2.170   5.538 -0.5556 -0.6346 -0.3588
    9MOL    C2016856   8.925  -2.031   5.355 -0.1983  0.4576  0.3859
    9MOL    C2116857   8.892  -2.043   5.492  0.0167 -0.0705 -0.9786
    9MOL    C2216858   8.783  -2.415   5.476  0.4881  0.0355  0.3577
    9MOL    C2316859   8.705  -2.427   5.615  0.1843  0.9078  0.4892
    9MOL     F116860   8.598  -2.336   5.622  0.0886 -0.1534 -0.3714
    9MOL     F216861   8.778  -2.409   5.722 -0.0692  0.3414  0.2787
    9MOL     F316862   8.652  -2.554   5.625  0.3140 -0.3706 -0.2234
    9MOL    C2416863   8.901  -2.520   5.481 -0.2680 -0.2904 -0.4536
    9MOL     F416864   9.003  -2.482   5.567  0.1491 -0.1504  0.7079
    9MOL     F516865   8.969  -2.538   5.361  0.8224  0.0316  0.0116
    9MOL     F616866   8.867  -2.643   5.520 -0.3514  0.0558  0.2215
    9MOL     O216867   8.363  -2.153   5.266 -0.3754 -0.7607 -0.3648
    9MOL    C2516868   8.982  -2.086   5.136  0.3356  0.5943 -0.1908
    9MOL     N416869   9.000  -1.955   5.150 -0.2142 -0.5285 -0.3702
    9MOL    C2616870   8.974  -1.910   5.279 -0.0927  0.3348 -0.6043
    9MOL     O316871   8.998  -1.801   5.324  0.1105 -0.6829  0.0551
    9MOL    C2716872   7.774  -2.018   5.127  0.1435  0.6050  0.1447
    9MOL    C2816873   7.788  -2.107   5.234  0.3387 -0.0238 -0.2383
    9MOL    C2916874   7.809  -1.884   5.138 -1.0001  1.0607  0.0886
    9MOL    C3016875   7.828  -2.056   5.359 -0.8794  0.2848 -0.5873
    9MOL    C3116876   7.843  -1.834   5.264  0.2685 -0.3554 -0.3462
    9MOL    C3216877   7.848  -1.917   5.373  0.0065  0.1471 -0.6701
    9MOL    C3316878   7.906  -1.864   5.488  0.2690 -0.2210  0.3544
    9MOL     N516879   8.015  -1.772   5.489  1.0150 -0.2835  0.0098
    9MOL     N616880   7.849  -1.864   5.622 -0.1069 -0.1406  0.2667
    9MOL    C3416881   8.008  -1.705   5.615 -0.1558 -0.2837  1.1685
    9MOL    C3516882   7.925  -1.767   5.694  0.9993  0.0755  0.2375
    9MOL    C3616883   7.701  -1.863   5.653 -0.3665 -0.0949  0.4926
    9MOL     H116884   7.647  -1.791   5.589  1.8390 -1.6247  1.5659
    9MOL     H216885   7.677  -1.855   5.757  1.4364  0.8115 -0.1711
    9MOL     H316886   7.673  -1.956   5.630 -2.8819  4.0150 -0.0137
    9MOL    C3716887   8.119  -1.781   5.393 -0.1498 -0.4998 -1.0136
    9MOL    C3816888   8.133  -1.897   5.316 -0.1235  0.3156 -1.0721
    9MOL    C3916889   8.227  -1.908   5.214  0.0873  0.4845  0.2418
    9MOL    C4016890   8.323  -1.805   5.192 -0.1225  0.5297 -0.0849
    9MOL    C4116891   8.311  -1.687   5.268  0.1130 -0.1606 -0.8454
    9MOL    C4216892   8.204  -1.674   5.363  0.2456 -0.0149  0.0888
    9MOL    C4316893   7.913  -1.740   5.845  0.3423 -0.4915 -0.0198
    9MOL     F716894   8.035  -1.732   5.906  0.0045  0.2242  0.0150
    9MOL     F816895   7.853  -1.838   5.906  0.2188  0.2469 -0.2017
    9MOL     F916896   7.857  -1.618   5.856  0.4480  0.3398  0.2431
    9MOL    C4416897   7.766  -2.221   4.833  0.0144 -0.4967  0.4167
    9MOL    C4516898   7.633  -2.212   4.862 -0.0106 -0.8711  0.0663
    9MOL    C4616899   7.512  -2.295   4.816 -0.2784  0.0644 -0.1205
    9MOL    F1016900   7.549  -2.381   4.725  0.0457  0.1594  0.8010
    9MOL    F1116901   7.457  -2.364   4.924 -0.3981 -0.1208 -0.0186
    9MOL     H416902   7.817  -2.290   4.771  0.4942  1.2925  0.3280
    9MOL     H516903   7.895  -2.278   5.102 -3.2991 -3.0829  3.3295
    9MOL     H616904   8.131  -2.340   5.192  1.3294  0.4553  2.4189
    9MOL     H716905   8.099  -2.063   4.782  2.1172  1.8411 -2.6658
    9MOL     H816906   8.316  -2.144   4.861 -1.9420 -1.5380 -0.6693
    9MOL     H916907   8.590  -2.241   5.406 -1.7453  0.4523  0.3898
    9MOL    H1016908   8.758  -2.624   5.281 -1.9379  2.2852 -1.4415
    9MOL    H1116909   8.611  -2.619   5.084  1.4615  1.7458 -0.5819
    9MOL    H1216910   8.814  -2.188   5.639 -0.1534 -0.7745  0.0105
    9MOL    H1316911   8.878  -2.340   5.235  2.8336 -0.5725  0.0959
    9MOL    H1416912   8.903  -1.958   5.557  0.1674 -0.1743  0.6893
    9MOL     O416913   8.987  -2.147   5.030  0.8280  0.3797  0.0280
    9MOL    H1516914   7.771  -2.211   5.224  1.1227  0.9224 -1.2662
    9MOL    H1616915   7.832  -2.123   5.445  1.0494 -0.1668  0.4821
    9MOL    H1716916   7.793  -1.815   5.056  0.4034 -0.0076  0.6954
    9MOL    H1816917   8.230  -1.991   5.154  3.9403 -0.8103 -0.7264
    9MOL    H1916918   8.080  -1.987   5.341  2.9408 -1.2872 -0.7023
    9MOL    H2016919   8.381  -1.603   5.249  2.4765  0.3426 -3.7658
    9MOL    H2116920   8.184  -1.577   5.409  0.1662  0.6125 -3.0526
    9MOL    H2216921   8.075  -1.621   5.636 -1.0790 -0.7105 -2.5452
    9MOL    H2316922   7.862  -1.726   5.267 -0.1817  0.7542  1.7070
    9MOL    F1216923   7.407  -2.218   4.775  0.1222 -0.1585 -0.0086
    9MOL    C4716924   7.511  -2.011   4.967  0.3096 -0.1314  0.5860
    9MOL    H2416925   7.419  -2.058   5.009  0.4065 -0.6655 -3.7408
    9MOL    H2516926   7.498  -1.954   4.864  1.8305  2.8318 -2.0329
    9MOL    H2616927   7.544  -1.939   5.041 -0.0253 -1.1420  2.8844
    9MOL     N116928   9.341  -1.701   5.509 -0.1075 -0.1134 -0.0329
    9MOL     N216929   9.192  -1.541   5.581  0.4184 -0.3771  0.0340
    9MOL     C116930   9.265  -1.587   5.466  0.5830  0.6678  0.9746
    9MOL     C216931   9.100  -1.445   5.585  1.0812  0.0566  0.0473
    9MOL     C316932   8.996  -1.422   5.486  0.1926 -0.2631  0.4394
    9MOL     C416933   8.889  -1.334   5.511  0.0563 -0.4751  0.2834
    9MOL     C516934   8.881  -1.254   5.624  0.2866  0.0446 -0.1774
    9MOL     C616935   8.988  -1.271   5.719 -0.3513  0.0238  0.2809
    9MOL     C716936   9.087  -1.364   5.701  0.1796 -0.0549  0.2619
    9MOL     N316937   8.778  -1.158   5.636  0.7956 -0.1107  0.1032
    9MOL     C816938   8.802  -1.018   5.628  0.1463  0.7409 -0.0764
    9MOL     C916939   8.666  -0.959   5.607  0.2706 -0.1209  0.0899
    9MOL    C1016940   8.570  -1.061   5.610  0.1559  0.1144 -0.2492
    9MOL    C1116941   8.642  -1.188   5.639  0.8888 -0.3181  0.1389
    9MOL     O116942   8.587  -1.297   5.654 -0.0962 -0.1739  0.0828
    9MOL    C1216943   8.625  -0.828   5.589  0.2307 -0.2265 -0.3073
    9MOL    C1316944   8.493  -0.799   5.566 -1.0571 -0.5061  0.0192
    9MOL    C1416945   8.393  -0.901   5.567 -0.1370 -0.1560  0.3916
    9MOL    C1516946   8.432  -1.032   5.595 -0.0703 -0.3887  0.3797
    9MOL    C1616947   8.551  -0.580   5.447  0.4137 -1.2220  0.0854
    9MOL    C1716948   8.616  -0.663   5.357  0.8609 -0.3415  0.1000
    9MOL    C1816949   8.692  -0.598   5.258  0.7854  0.6591 -0.2417
    9MOL    C1916950   8.548  -0.440   5.437 -0.0825 -1.0618 -0.1798
    9MOL    C2016951   8.686  -0.466   5.235  1.0297 -0.0051 -0.2764
    9MOL    C2116952   8.617  -0.385   5.329  0.2492 -0.2170 -0.6724
    9MOL    C2216953   8.459  -0.647   5.551  0.0651  0.1076 -0.5544
    9MOL    C2316954   8.313  -0.631   5.495  0.8009 -0.1665  0.2462
    9MOL     F116955   8.285  -0.501   5.467  0.1030  0.3326 -0.0495
    9MOL     F216956   8.220  -0.667   5.585  0.1915 -0.9037 -0.0256
    9MOL     F316957   8.291  -0.699   5.376 -0.0548  0.4765 -0.2172
    9MOL    C2416958   8.464  -0.582   5.695 -0.2051 -0.3593 -0.2078
    9MOL     F416959   8.432  -0.670   5.794  0.7193  0.1412  0.5412
    9MOL     F516960   8.388  -0.469   5.697 -0.1840  0.3568 -0.2346
    9MOL     F616961   8.596  -0.544   5.719 -0.0256 -0.2463  0.2017
    9MOL     O216962   8.913  -0.961   5.623  0.3191 -0.2042 -0.1851
    9MOL    C2516963   8.773  -0.657   5.142  0.2811 -0.1249 -0.6434
    9MOL     N416964   8.801  -0.552   5.055 -0.5888 -0.3464 -0.0888
    9MOL    C2616965   8.750  -0.437   5.104  0.2070 -0.4626  1.0891
    9MOL     O316966   8.747  -0.335   5.039  0.0151 -0.1901  0.4561
    9MOL    C2716967   9.272  -1.552   5.331 -0.0045 -0.1355 -0.1127
    9MOL    C2816968   9.159  -1.559   5.245  0.0279 -1.0744  0.1451
    9MOL    C2916969   9.396  -1.515   5.270  0.9073  0.3127 -0.5137
    9MOL    C3016970   9.169  -1.542   5.112 -0.1119  0.3252 -0.2735
    9MOL    C3116971   9.406  -1.508   5.133  0.2660 -0.2885  0.6362
    9MOL    C3216972   9.292  -1.512   5.055 -0.8613 -0.4551  0.1972
    9MOL    C3316973   9.320  -1.514   4.917  1.2297  0.5524  0.4333
    9MOL     N516974   9.271  -1.607   4.821  0.0881  0.0221 -0.8124
    9MOL     N616975   9.402  -1.423   4.846 -0.0215  0.4825 -0.2345
    9MOL    C3416976   9.357  -1.590   4.709 -0.1290 -0.0875 -0.7468
    9MOL    C3516977   9.434  -1.485   4.721  0.3292  0.0396 -0.5642
    9MOL    C3616978   9.431  -1.287   4.893 -0.6002 -0.1471 -0.0178
    9MOL     H116979   9.375  -1.265   4.992 -0.3157  3.1187 -0.6607
    9MOL     H216980   9.401  -1.207   4.814  2.9583 -0.4358 -0.3624
    9MOL     H316981   9.539  -1.277   4.907 -0.0656 -2.0115 -1.8142
    9MOL    C3716982   9.203  -1.717   4.870  0.1647 -0.5597  0.5359
    9MOL    C3816983   9.276  -1.798   4.962 -1.0780 -0.7002 -0.0882
    9MOL    C3916984   9.210  -1.879   5.049 -0.2751 -0.1976  0.8422
    9MOL    C4016985   9.068  -1.883   5.051  0.1020 -0.3039 -0.1546
    9MOL    C4116986   8.991  -1.808   4.955 -0.1474  0.0115  0.1650
    9MOL    C4216987   9.063  -1.720   4.865 -0.3320 -0.0595 -0.3188
    9MOL    C4316988   9.537  -1.438   4.617 -0.0034 -0.2998  0.2123
    9MOL     F716989   9.654  -1.508   4.630  0.5056 -0.0073  0.0490
    9MOL     F816990   9.562  -1.305   4.620 -0.1668 -0.3073 -0.5780
    9MOL     F916991   9.494  -1.465   4.496  0.1898  0.0963 -0.3754
    9MOL    C4416992   9.269  -1.602   5.687 -0.0598 -0.3413  0.2152
    9MOL    C4516993   9.346  -1.697   5.647 -0.2047 -0.0330  0.6003
    9MOL    C4616994   9.429  -1.791   5.735  0.0919 -0.4209  0.6030
    9MOL    F1016995   9.465  -1.718   5.838 -0.4654  0.0947  0.2960
    9MOL    F1116996   9.342  -1.892   5.764 -0.1938  0.5166  0.3310
    9MOL     H416997   9.242  -1.574   5.794  1.6426 -0.7695  0.2066
    9MOL     H516998   8.988  -1.477   5.395 -0.4549 -0.3647 -1.9034
    9MOL     H616999   8.804  -1.324   5.442 -1.0362  0.5346  1.4031
    9MOL     H717000   9.160  -1.375   5.782  0.6717 -0.1170  0.4659
    9MOL     H817001   8.992  -1.207   5.798 -0.1069 -1.2299 -1.1890
    9MOL     H917002   8.703  -0.757   5.580  0.2426 -0.4527  0.5591
    9MOL    H1017003   8.285  -0.879   5.548  0.2195 -2.0020  0.5703
    9MOL    H1117004   8.362  -1.110   5.589 -0.4801 -0.1689 -1.7465
    9MOL    H1217005   8.498  -0.382   5.511 -1.6564 -0.5650  0.1852
    9MOL    H1317006   8.614  -0.773   5.352 -0.0748 -0.1388  0.4725
    9MOL    H1417007   8.608  -0.277   5.310 -0.6843 -0.1867  2.2893
    9MOL     O417008   8.803  -0.774   5.118  0.8063  0.7734 -0.3779
    9MOL    H1517009   9.068  -1.602   5.285 -2.8993 -0.8941  0.3814
    9MOL    H1617010   9.080  -1.544   5.055 -0.4056  2.4222  0.1316
    9MOL    H1717011   9.476  -1.489   5.340  0.7085 -1.6777  1.8640
    9MOL    H1817012   9.273  -1.953   5.108  0.3078 -0.5020  1.8162
    9MOL    H1917013   9.387  -1.797   4.965 -2.1550 -2.1291  4.6658
    9MOL    H2017014   8.882  -1.810   4.964 -1.6212 -1.4550  0.5646
    9MOL    H2117015   9.011  -1.651   4.800 -0.5177 -0.0977  0.2245
    9MOL    H2217016   9.357  -1.664   4.632 -3.2304 -0.7878 -0.2823
    9MOL    H2317017   9.507  -1.491   5.086 -0.0398  1.0012  2.5508
    9MOL    F1217018   9.535  -1.848   5.679  0.4286 -0.5147  0.2680
    9MOL    C4717019   9.419  -1.787   5.414  0.3201  0.0715  0.3945
    9MOL    H2417020   9.400  -1.892   5.439 -1.1167  1.7712  2.7278
    9MOL    H2517021   9.529  -1.772   5.421  0.5344 -2.5228 -0.8108
    9MOL    H2617022   9.385  -1.764   5.314  3.0177  2.4146  2.1305
    9MOL     N117023   8.723   0.230   4.968  0.1710 -0.2708  0.1880
    9MOL     N217024   8.810   0.071   5.110 -0.0062  0.0802 -0.0285
    9MOL     C117025   8.780   0.099   4.974 -0.4870 -0.2693  0.0138
    9MOL     C217026   8.890  -0.035   5.152 -0.3676 -0.1009 -0.2147
    9MOL     C317027   9.008  -0.060   5.075 -0.7732 -0.1437 -0.1019
    9MOL     C417028   9.098  -0.162   5.107  0.2494  0.2867  0.1650
    9MOL     C517029   9.067  -0.242   5.222  0.1640 -0.0759  0.0044
    9MOL     C617030   8.943  -0.226   5.292  0.0059 -0.2128  0.2271
    9MOL     C717031   8.853  -0.119   5.260 -0.1177 -0.2541  0.1551
    9MOL     N317032   9.163  -0.332   5.288  0.3686 -0.3049  0.4269
    9MOL     C817033   9.119  -0.462   5.316  0.0674 -0.3978 -0.4127
    9MOL     C917034   9.213  -0.507   5.420 -0.7263  0.2711 -0.7399
    9MOL    C1017035   9.304  -0.404   5.443 -0.2591  0.1902 -0.7428
    9MOL    C1117036   9.278  -0.293   5.353 -0.0788  0.4248 -0.2267
    9MOL     O117037   9.338  -0.188   5.331 -0.3608  0.2172  0.7482
    9MOL    C1217038   9.221  -0.629   5.484  0.4596  0.3918 -0.3426
    9MOL    C1317039   9.318  -0.637   5.589 -0.4738  0.7752 -0.3929
    9MOL    C1417040   9.414  -0.533   5.611 -0.0085  0.2302  0.5425
    9MOL    C1517041   9.402  -0.416   5.537 -0.1088  0.3335 -0.8357
    9MOL    C1617042   9.317  -0.886   5.567  0.6463 -1.0680 -0.3935
    9MOL    C1717043   9.388  -0.871   5.445 -0.4444  0.2496 -0.6752
    9MOL    C1817044   9.363  -0.964   5.344 -0.2042 -0.0645 -0.2286
    9MOL    C1917045   9.230  -0.996   5.578  0.2955  0.4147 -0.5483
    9MOL    C2017046   9.283  -1.075   5.359 -0.3923 -0.0299  0.1865
    9MOL    C2117047   9.219  -1.097   5.480 -0.8359 -0.0322 -0.3413
    9MOL    C2217048   9.328  -0.769   5.666 -0.2683  0.1438 -0.2989
    9MOL    C2317049   9.463  -0.797   5.751  0.6188 -0.0065 -0.0022
    9MOL     F117050   9.457  -0.917   5.816  0.4854 -0.5298 -0.2334
    9MOL     F217051   9.480  -0.709   5.851 -0.1786 -0.5228  0.4134
    9MOL     F317052   9.568  -0.794   5.670 -0.1561  0.4174 -0.0938
    9MOL    C2417053   9.204  -0.764   5.769  0.0902 -0.1754  0.3608
    9MOL     F417054   9.076  -0.757   5.711 -0.2344 -0.6090  0.0016
    9MOL     F517055   9.202  -0.658   5.850 -0.2610  0.2414 -0.0280
    9MOL     F617056   9.199  -0.870   5.851  0.3871  0.3146  0.6090
    9MOL     O217057   9.018  -0.512   5.275  0.6518  0.2188 -0.3936
    9MOL    C2517058   9.414  -0.971   5.205 -0.5259 -0.2224  0.9771
    9MOL     N417059   9.376  -1.098   5.155 -0.0294 -0.2592  0.2841
    9MOL    C2617060   9.294  -1.165   5.241  0.1722  0.6147 -0.3781
    9MOL     O317061   9.240  -1.273   5.217 -0.2230  0.3882 -0.0166
    9MOL    C2717062   8.810   0.013   4.866 -0.5940 -0.0304 -0.1248
    9MOL    C2817063   8.772  -0.122   4.859  0.6293  0.0454 -0.3551
    9MOL    C2917064   8.895   0.064   4.765 -0.1603  0.0902  0.2403
    9MOL    C3017065   8.822  -0.203   4.752  0.3074  0.6827 -0.4475
    9MOL    C3117066   8.949  -0.022   4.661  0.4297  0.7276 -0.1006
    9MOL    C3217067   8.913  -0.162   4.660  0.4198  0.4419  0.1546
    9MOL    C3317068   8.964  -0.256   4.562 -0.3344 -0.6568  0.5820
    9MOL     N517069   9.008  -0.389   4.585 -0.0591 -0.4387 -0.5802
    9MOL     N617070   9.014  -0.213   4.432  0.2819 -0.3623 -0.0657
    9MOL    C3417071   9.093  -0.414   4.477  0.1382 -0.2798 -0.2548
    9MOL    C3517072   9.092  -0.321   4.386 -0.1822 -0.1709 -0.6598
    9MOL    C3617073   8.935  -0.136   4.341  0.1954 -0.8035 -0.3614
    9MOL     H117074   8.976  -0.145   4.244  1.0141 -1.4519  1.3103
    9MOL     H217075   8.933  -0.035   4.383  0.4857  3.1890 -0.6763
    9MOL     H317076   8.829  -0.169   4.343 -2.0753  1.3258  1.8675
    9MOL    C3717077   8.984  -0.475   4.695 -0.7245 -0.6634 -0.1704
    9MOL    C3817078   9.068  -0.471   4.812  0.5108 -0.1238 -0.5083
    9MOL    C3917079   9.012  -0.515   4.935  0.3547 -0.2827 -0.2677
    9MOL    C4017080   8.878  -0.556   4.937  0.5291 -0.3517 -0.0829
    9MOL    C4117081   8.807  -0.591   4.818  0.0620  0.8335 -0.1508
    9MOL    C4217082   8.859  -0.546   4.695  0.1983 -0.2230  0.2026
    9MOL    C4317083   9.194  -0.306   4.267  0.4377 -0.1329  0.1828
    9MOL     F717084   9.137  -0.262   4.151  0.2353  0.0522 -0.0427
    9MOL     F817085   9.243  -0.426   4.245 -0.4271  0.1880 -0.5274
    9MOL     F917086   9.297  -0.223   4.303 -0.5920 -0.0545 -0.2651
    9MOL    C4417087   8.740   0.169   5.186 -0.4123 -0.6201 -0.4700
    9MOL    C4517088   8.700   0.266   5.107 -0.0775 -0.3163  0.2435
    9MOL    C4617089   8.645   0.393   5.158 -0.9573 -0.5383 -0.1769
    9MOL    F1017090   8.602   0.383   5.279 -0.1152 -0.3161 -0.2021
    9MOL    F1117091   8.745   0.489   5.160  0.3299 -0.9961  0.0830
    9MOL     H417092   8.719   0.157   5.289  1.5379 -1.4105  1.5129
    9MOL     H517093   9.028   0.017   5.002  2.0213  1.7263 -1.3017
    9MOL     H617094   9.194  -0.181   5.052  2.4416 -3.3181 -2.3071
    9MOL     H717095   8.763  -0.095   5.317 -0.6077  2.3412 -1.1405
    9MOL     H817096   8.916  -0.291   5.373 -1.0025  1.6735  1.7363
    9MOL     H917097   9.154  -0.718   5.454 -0.6015  0.8680  0.2518
    9MOL    H1017098   9.483  -0.542   5.694 -1.3890  6.4007  1.9168
    9MOL    H1117099   9.478  -0.342   5.556  2.5636  0.3777 -0.6349
    9MOL    H1217100   9.165  -1.004   5.670 -0.3608  1.6179  0.9961
    9MOL    H1317101   9.471  -0.792   5.432  0.3947  1.1811 -0.8537
    9MOL    H1417102   9.159  -1.187   5.485 -1.4055 -0.2128  0.6891
    9MOL     O417103   9.484  -0.892   5.146 -0.1604  0.2233  0.2343
    9MOL    H1517104   8.714  -0.151   4.942 -0.0083  2.1567  0.1125
    9MOL    H1617105   8.802  -0.310   4.760  0.3488  0.6446  1.0286
    9MOL    H1717106   8.938   0.161   4.780 -2.1644  0.2655  0.0288
    9MOL    H1817107   9.064  -0.511   5.031 -3.2019 -0.9098 -3.1321
    9MOL    H1917108   9.168  -0.421   4.807  0.7742  0.8658  0.5747
    9MOL    H2017109   8.705  -0.625   4.825  0.4150  0.1138  0.9728
    9MOL    H2117110   8.803  -0.552   4.602  2.3661 -0.9292 -2.9175
    9MOL    H2217111   9.153  -0.509   4.493 -0.4776  0.3799  1.8854
    9MOL    H2317112   9.021   0.022   4.588  0.3483 -0.7704  3.0298
    9MOL    F1217113   8.547   0.444   5.081 -0.2072 -0.3213 -0.0116
    9MOL    C4717114   8.624   0.262   4.863 -0.0416  0.1864  0.6880
    9MOL    H2417115   8.592   0.362   4.866 -0.9617 -1.2315  1.7003
    9MOL    H2517116   8.534   0.193   4.851 -1.9676  1.8713  0.2371
    9MOL    H2617117   8.673   0.239   4.765  0.7575 -1.4277 -0.1611
    9MOL    H2717118   9.387  -1.129   5.056 -0.0296  0.4691 -0.4414
   10MOL     N117119   1.627   6.016   6.855  0.0876  0.0632 -0.3106
   10MOL     N217120   1.730   6.085   6.668  0.2162 -0.0641  0.0981
   10MOL     C117121   1.661   6.135   6.784 -0.0012  0.2281  0.0601
   10MOL     C217122   1.761   6.172   6.562 -0.4688 -0.1112 -0.4329
   10MOL     C317123   1.687   6.166   6.442 -0.3012 -0.2516 -0.4341
   10MOL     C417124   1.705   6.262   6.337 -0.0978  0.5949 -0.7670
   10MOL     C517125   1.791   6.368   6.355  0.9033  0.4454  0.2748
   10MOL     C617126   1.853   6.386   6.480 -0.4286 -0.2922 -0.2323
   10MOL     C717127   1.843   6.290   6.585  0.6256  0.0657 -0.1180
   10MOL     N317128   1.818   6.457   6.258  0.4759 -0.4359  0.2054
   10MOL     C817129   1.943   6.467   6.197 -0.1575 -0.0329  0.4127
   10MOL     C917130   1.921   6.571   6.092  0.6697 -0.4243 -0.4055
   10MOL    C1017131   1.789   6.612   6.097 -0.3692  0.3690 -0.1992
   10MOL    C1117132   1.721   6.537   6.210  0.5314 -0.5314  0.7464
   10MOL     O117133   1.607   6.547   6.249  0.3706  0.0150  0.2894
   10MOL    C1217134   2.008   6.613   5.989  0.3614 -0.1416  0.5343
   10MOL    C1317135   1.960   6.702   5.895  0.2981  0.1977  0.6635
   10MOL    C1417136   1.822   6.750   5.897 -0.1562  0.1411  0.5310
   10MOL    C1517137   1.736   6.697   5.997 -0.1439 -0.3196 -0.9071
   10MOL    C1617138   1.999   6.892   5.731  0.0469  0.1444 -0.2504
   10MOL    C1717139   1.971   6.992   5.822 -0.1691  0.2237  0.6912
   10MOL    C1817140   1.925   7.115   5.778  0.0226  0.3829  0.2284
   10MOL    C1917141   2.003   6.927   5.593 -0.1446 -0.3153 -0.5278
   10MOL    C2017142   1.914   7.140   5.642  0.2206 -0.4127  0.0667
   10MOL    C2117143   1.956   7.047   5.544  0.2899  0.3870 -0.0004
   10MOL    C2217144   2.054   6.759   5.780  0.3208  0.4673 -0.3900
   10MOL    C2317145   2.197   6.777   5.830 -0.3100 -0.2808 -0.0320
   10MOL     F117146   2.266   6.656   5.824  0.1936  0.2627  0.0034
   10MOL     F217147   2.201   6.824   5.949 -0.0045 -0.4314 -0.7533
   10MOL     F317148   2.264   6.857   5.744  0.1027 -0.0164 -0.4043
   10MOL    C2417149   2.050   6.648   5.660 -0.1690 -0.3844  0.1998
   10MOL     F417150   2.048   6.526   5.713 -0.3433  0.2238 -0.1208
   10MOL     F517151   2.133   6.659   5.565  0.0345 -0.1637  0.4888
   10MOL     F617152   1.930   6.660   5.602 -0.4878  0.1674  0.2171
   10MOL     O217153   2.044   6.414   6.230 -0.2349 -0.0476  0.2269
   10MOL    C2517154   1.874   7.237   5.850  0.4630  0.0905  0.1719
   10MOL     N417155   1.830   7.329   5.758  0.0118 -0.1670  0.3833
   10MOL    C2617156   1.841   7.278   5.630  0.0317  0.0778 -0.1619
   10MOL     O317157   1.786   7.328   5.533  0.0758 -0.1345  0.2653
   10MOL    C2717158   1.650   6.268   6.833 -0.2460 -0.3393  0.0619
   10MOL    C2817159   1.694   6.303   6.961  0.3830  0.3620  0.5234
   10MOL    C2917160   1.604   6.371   6.750 -0.2532 -0.5366 -0.0082
   10MOL    C3017161   1.688   6.436   7.003 -0.5584  0.7673  0.0948
   10MOL    C3117162   1.611   6.506   6.787  0.1105 -0.1512  0.5372
   10MOL    C3217163   1.640   6.542   6.916 -0.0324  0.0339  0.1407
   10MOL    C3317164   1.628   6.676   6.951 -0.0176  0.9329 -0.3630
   10MOL     N517165   1.522   6.727   7.033 -0.0510 -0.1962 -0.2550
   10MOL     N617166   1.695   6.787   6.890 -0.0657 -0.2225 -0.0627
   10MOL    C3417167   1.518   6.864   7.010  0.3204  0.0173 -0.1724
   10MOL    C3517168   1.624   6.899   6.928  0.2266  0.3914  0.0648
   10MOL    C3617169   1.811   6.769   6.795  0.3224 -0.1611  0.4925
   10MOL     H117170   1.848   6.667   6.796 -1.2114  1.1758 -0.5719
   10MOL     H217171   1.895   6.836   6.826 -0.3742  1.0498 -3.1466
   10MOL     H317172   1.784   6.804   6.697  4.2395  3.4416  0.9674
   10MOL    C3717173   1.473   6.649   7.145 -0.1897  0.1861 -0.2086
   10MOL    C3817174   1.493   6.699   7.275  0.1860 -0.0819  0.3332
   10MOL    C3917175   1.455   6.621   7.388 -0.3934 -0.1558  0.2814
   10MOL    C4017176   1.398   6.496   7.364  0.2179  0.4938  0.0673
   10MOL    C4117177   1.374   6.451   7.232 -0.2084 -0.3608 -0.5593
   10MOL    C4217178   1.407   6.530   7.122 -0.1586 -0.1938  0.2992
   10MOL    C4317179   1.655   7.036   6.875 -0.3326 -0.6590  0.3268
   10MOL     F717180   1.545   7.122   6.878 -0.0069 -0.1993 -0.6055
   10MOL     F817181   1.691   7.035   6.746 -0.4232  0.0488 -0.2341
   10MOL     F917182   1.757   7.091   6.944  0.2665 -0.3725 -0.1795
   10MOL    C4417183   1.749   5.952   6.687 -0.2400 -0.4677 -0.2235
   10MOL    C4517184   1.686   5.909   6.794  0.2235 -0.3569 -0.2939
   10MOL    C4617185   1.692   5.776   6.859  0.0492  0.1534 -0.1684
   10MOL    F1017186   1.581   5.703   6.838 -0.5831 -0.3047  0.2011
   10MOL    F1117187   1.797   5.706   6.805 -0.1334 -0.0234  0.6288
   10MOL     H417188   1.811   5.903   6.611 -0.6559 -1.1122  0.8774
   10MOL     H517189   1.617   6.093   6.434  1.6112  0.6669 -0.3228
   10MOL     H617190   1.655   6.251   6.245 -1.5615  1.1907  0.4036
   10MOL     H717191   1.897   6.305   6.678 -2.7568  1.0025 -1.5665
   10MOL     H817192   1.919   6.470   6.497 -0.4850 -2.0601  1.0114
   10MOL     H917193   2.103   6.568   5.989  1.8120  2.2837  1.8215
   10MOL    H1017194   1.780   6.816   5.824  1.0661  0.9979  1.2597
   10MOL    H1117195   1.624   6.720   5.991  0.5736  0.0696 -0.8791
   10MOL    H1217196   2.037   6.862   5.514  3.1160  1.7226 -0.5236
   10MOL    H1317197   1.985   6.979   5.933 -1.6901  2.6512 -0.0539
   10MOL    H1417198   1.947   7.067   5.438  2.2360  0.9290 -2.7271
   10MOL     O417199   1.872   7.248   5.973 -0.3242 -0.3502  0.5659
   10MOL    H1517200   1.744   6.229   7.024  1.6377  0.5658  0.5128
   10MOL    H1617201   1.725   6.460   7.100 -0.6896  0.6151 -0.1204
   10MOL    H1717202   1.578   6.337   6.649  1.9051 -0.5780  1.9439
   10MOL    H1817203   1.469   6.666   7.489 -3.3641  1.9278  1.1662
   10MOL    H1917204   1.385   6.428   7.450 -2.0356  0.0186 -2.9407
   10MOL    H2017205   1.541   6.792   7.304  1.2584  1.5180  2.7232
   10MOL    H2117206   1.328   6.351   7.231  0.1490  2.9200 -0.1957
   10MOL    H2217207   1.374   6.504   7.023 -3.6088 -1.9654 -1.1923
   10MOL    H2317208   1.443   6.931   7.047 -0.3540  0.4508  2.2670
   10MOL    H2417209   1.559   6.574   6.715  0.5777 -2.8837  1.0872
   10MOL    F1217210   1.718   5.781   6.989 -0.4120  0.0968 -0.0615
   10MOL    C4717211   1.504   6.008   6.929 -0.0102  0.6000  0.1581
   10MOL    H2517212   1.458   5.910   6.932  0.0855 -0.1289 -0.1916
   10MOL    H2617213   1.428   6.062   6.882  1.4357  1.9059  0.2318
   10MOL    H2717214   1.526   6.041   7.033 -0.1968  0.4164 -1.8315
   10MOL     N117215   2.170   8.157   5.678 -0.0806  0.3441  0.1175
   10MOL     N217216   2.136   8.318   5.836  0.3251  0.0364  0.5773
   10MOL     C117217   2.080   8.201   5.774 -0.7427 -0.1865  0.4986
   10MOL     C217218   2.068   8.397   5.925 -0.3605  0.2256 -0.6285
   10MOL     C317219   1.946   8.449   5.890 -0.0813  0.7595 -0.6524
   10MOL     C417220   1.887   8.544   5.976  0.0603 -0.7734  0.2309
   10MOL     C517221   1.944   8.574   6.099 -0.9611 -0.0137 -0.4915
   10MOL     C617222   2.069   8.529   6.133 -0.6889  0.5530  0.0176
   10MOL     C717223   2.135   8.442   6.044 -0.4467  0.1028  0.5131
   10MOL     N317224   1.888   8.669   6.184 -0.6098 -0.2271  0.0334
   10MOL     C817225   1.947   8.786   6.223  0.4329 -0.1046  0.2158
   10MOL     C917226   1.833   8.852   6.302  0.1010 -0.8937 -0.4024
   10MOL    C1017227   1.717   8.777   6.294 -0.1830  0.3575  0.0181
   10MOL    C1117228   1.754   8.654   6.220 -0.2244 -0.1236  0.0776
   10MOL     O117229   1.688   8.553   6.211 -0.8085 -0.0316 -0.5062
   10MOL    C1217230   1.838   8.972   6.375 -0.0864  0.1484  0.6502
   10MOL    C1317231   1.725   9.006   6.451  0.5663  0.5730  0.5719
   10MOL    C1417232   1.603   8.936   6.441 -0.9751 -0.4793 -0.3127
   10MOL    C1517233   1.598   8.821   6.355  0.3153  0.6165  0.9120
   10MOL    C1617234   1.698   9.042   6.688  0.0942  0.0596  0.0499
   10MOL    C1717235   1.626   9.100   6.792  0.0637  0.3665  0.2556
   10MOL    C1817236   1.605   9.033   6.912 -0.7589 -0.5385  0.0908
   10MOL    C1917237   1.753   8.911   6.706  0.3293 -0.6370  0.0594
   10MOL    C2017238   1.660   8.911   6.934  0.5015 -0.1434 -1.0680
   10MOL    C2117239   1.729   8.843   6.829  0.0935 -0.6542 -0.5754
   10MOL    C2217240   1.737   9.118   6.559  0.5952  0.1006  0.2690
   10MOL    C2317241   1.885   9.168   6.582  0.3092 -0.5413 -0.6194
   10MOL     F117242   1.968   9.070   6.628 -0.6094 -0.5053 -0.1773
   10MOL     F217243   1.886   9.274   6.679  0.3745 -0.3826  0.2038
   10MOL     F317244   1.935   9.229   6.476 -0.0520 -0.1070 -0.3381
   10MOL    C2417245   1.636   9.233   6.516  0.3874  0.6318  0.4116
   10MOL     F417246   1.683   9.268   6.392  0.2042 -0.4906  0.1160
   10MOL     F517247   1.646   9.344   6.587 -0.5362 -0.3024  0.0026
   10MOL     F617248   1.508   9.202   6.512 -0.1724 -0.0275  0.2487
   10MOL     O217249   2.064   8.821   6.206 -0.4367 -0.0143 -0.2987
   10MOL    C2517250   1.534   9.067   7.045  0.2343 -0.0284 -0.2393
   10MOL     N417251   1.570   8.974   7.134  0.3715  0.6501 -0.3644
   10MOL    C2617252   1.645   8.871   7.071  0.6212 -0.1998 -0.3209
   10MOL     O317253   1.678   8.767   7.123  0.3612 -0.1362  0.3284
   10MOL    C2717254   1.957   8.139   5.788 -0.1566 -0.0689 -0.3805
   10MOL    C2817255   1.900   8.084   5.673  0.3651 -0.4504 -0.1019
   10MOL    C2917256   1.895   8.112   5.913  0.9075 -0.1417  0.0893
   10MOL    C3017257   1.773   8.028   5.677 -0.4319 -0.2536  0.4625
   10MOL    C3117258   1.771   8.049   5.918 -0.0069  0.5580  0.3203
   10MOL    C3217259   1.705   8.010   5.797 -0.0300 -0.2514  0.2226
   10MOL    C3317260   1.585   7.938   5.803  0.0355  0.2599  0.2975
   10MOL     N517261   1.556   7.806   5.869  0.1214  0.2648  0.3222
   10MOL     N617262   1.457   7.995   5.776  0.2421  0.1499 -0.5511
   10MOL    C3417263   1.423   7.807   5.892 -0.1824 -0.3596 -0.3775
   10MOL    C3517264   1.363   7.913   5.844  0.5347  0.4744  0.3492
   10MOL    C3617265   1.438   8.038   5.634  0.2358  0.0892  0.2381
   10MOL     H117266   1.474   7.960   5.565 -0.7818  0.1115 -0.9820
   10MOL     H217267   1.499   8.121   5.603  0.4295 -1.7955  1.0079
   10MOL     H317268   1.336   8.063   5.615  0.9518  0.3718  0.8368
   10MOL    C3717269   1.635   7.689   5.858 -0.3015 -0.0223  0.1929
   10MOL    C3817270   1.762   7.689   5.797  0.5986  0.5959 -0.3939
   10MOL    C3917271   1.832   7.575   5.780  0.4523  0.2152 -0.4245
   10MOL    C4017272   1.765   7.451   5.786 -0.8619 -0.6803 -0.4791
   10MOL    C4117273   1.639   7.441   5.831  0.3511 -0.4107 -0.8921
   10MOL    C4217274   1.574   7.563   5.872  0.1400  0.1039 -0.7155
   10MOL    C4317275   1.224   7.966   5.899  0.3809 -0.7698 -0.6474
   10MOL     F717276   1.210   8.100   5.877 -0.2119 -0.1461 -0.6102
   10MOL     F817277   1.221   7.949   6.035 -0.2671 -0.2119  0.4108
   10MOL     F917278   1.122   7.897   5.851 -0.0658  0.3248  0.6529
   10MOL    C4417279   2.238   8.357   5.746  0.2990 -0.1344 -0.4796
   10MOL    C4517280   2.260   8.264   5.652  0.4509 -0.3339 -0.5201
   10MOL    C4617281   2.352   8.270   5.537 -0.4985  0.1731 -0.3417
   10MOL    F1017282   2.483   8.241   5.559 -0.2576  0.4426  0.2509
   10MOL    F1117283   2.310   8.182   5.442  0.1432 -0.0460 -0.2522
   10MOL     H417284   2.284   8.445   5.778 -0.4077  1.2983 -0.1876
   10MOL     H517285   1.900   8.415   5.792  0.2980 -1.5246 -2.9845
   10MOL     H617286   1.781   8.571   5.959  0.1510 -2.9424  1.0236
   10MOL     H717287   2.241   8.421   6.058  2.3315  2.8041  2.6512
   10MOL     H817288   2.120   8.563   6.223 -1.2215  0.7722 -2.2504
   10MOL     H917289   1.938   9.016   6.395  4.3137 -1.0180  0.4260
   10MOL    H1017290   1.525   8.960   6.503  1.8421  0.0136  1.0563
   10MOL    H1117291   1.502   8.764   6.342  0.1948  1.0124 -1.7391
   10MOL    H1217292   1.818   8.860   6.633 -1.0001 -0.4886  1.2726
   10MOL    H1317293   1.577   9.193   6.775 -0.4186  1.1759  2.3029
   10MOL    H1417294   1.775   8.736   6.835 -0.4241 -0.1049  0.9988
   10MOL     O417295   1.464   9.159   7.072  0.0003 -0.7777  0.2012
   10MOL    H1517296   1.939   8.102   5.574  0.9066 -0.2746  3.6883
   10MOL    H1617297   1.742   7.997   5.578  4.2048  0.7687  1.0506
   10MOL    H1717298   1.952   8.126   6.007  1.1848 -1.0321 -0.1013
   10MOL    H1817299   1.927   7.583   5.729  0.1313 -0.1135 -0.6534
   10MOL    H1917300   1.808   7.781   5.768  3.0224 -1.0473  0.5512
   10MOL    H2017301   1.589   7.345   5.845  0.0394  0.7727 -0.8597
   10MOL    H2117302   1.474   7.552   5.909 -0.1863  0.5446  1.5507
   10MOL    H2217303   1.374   7.735   5.952  0.0872  0.1065 -0.2198
   10MOL    H2317304   1.730   8.023   6.017  1.3393  0.0497 -0.9721
   10MOL    F1217305   2.362   8.395   5.479 -0.2794 -0.5814  0.1380
   10MOL    C4717306   2.217   8.015   5.700 -0.8679  0.4774 -0.2481
   10MOL    H2417307   2.284   8.014   5.782  1.0586  0.9593 -1.2572
   10MOL    H2517308   2.260   7.967   5.614 -0.9746  1.4013  1.5229
   10MOL    H2617309   2.126   7.953   5.720  0.3824 -1.5244 -0.0223
   10MOL     N117310   0.823   8.701   7.639 -0.3276 -0.5431  0.4567
   10MOL     N217311   0.911   8.720   7.430  0.1106  0.2444  0.0543
   10MOL     C117312   0.944   8.725   7.568  0.4440  0.0220  0.8785
   10MOL     C217313   1.006   8.712   7.327  0.0382  0.2171 -0.7982
   10MOL     C317314   1.059   8.830   7.281  0.0755 -0.1731  0.4613
   10MOL     C417315   1.171   8.829   7.192 -0.2954 -0.4827  0.4783
   10MOL     C517316   1.219   8.702   7.148 -0.2184 -0.1242  0.5162
   10MOL     C617317   1.161   8.581   7.191  0.5479  0.3567 -0.1250
   10MOL     C717318   1.058   8.582   7.292  0.3650  0.2957 -0.4363
   10MOL     N317319   1.326   8.694   7.060  0.1703 -0.0924  0.3864
   10MOL     C817320   1.424   8.596   7.066  0.0944 -1.1304 -0.1911
   10MOL     C917321   1.484   8.595   6.931  0.5391 -0.4975 -0.5936
   10MOL    C1017322   1.424   8.695   6.859  0.2317 -0.0553  0.0898
   10MOL    C1117323   1.326   8.764   6.939 -0.7990 -0.8863 -0.1879
   10MOL     O117324   1.254   8.858   6.905 -0.0957  0.3941 -0.3872
   10MOL    C1217325   1.579   8.508   6.873  0.0811 -0.0109  0.0711
   10MOL    C1317326   1.603   8.518   6.730 -0.3903 -0.2246 -0.4010
   10MOL    C1417327   1.550   8.635   6.663  0.6114  0.5186 -1.0552
   10MOL    C1517328   1.454   8.716   6.722  0.0152  0.7030  0.2276
   10MOL    C1617329   1.615   8.285   6.678  0.1354  0.3911  0.1229
   10MOL    C1717330   1.476   8.291   6.643  0.5350  0.4925  0.6349
   10MOL    C1817331   1.407   8.170   6.632 -0.5876  0.0614  0.3012
   10MOL    C1917332   1.676   8.160   6.713 -1.0199  0.0445  0.2272
   10MOL    C2017333   1.469   8.050   6.653 -0.7240  0.2913 -0.9929
   10MOL    C2117334   1.603   8.042   6.701  0.2781 -0.0341  0.7809
   10MOL    C2217335   1.695   8.414   6.653 -0.3807 -0.8855 -0.5660
   10MOL    C2317336   1.702   8.430   6.499 -0.0794 -0.1347 -0.1824
   10MOL     F117337   1.758   8.315   6.443 -0.1216  0.1191 -0.1563
   10MOL     F217338   1.784   8.530   6.471  0.2514  0.0639  0.3173
   10MOL     F317339   1.582   8.456   6.435 -0.2141  0.6164 -0.1833
   10MOL    C2417340   1.837   8.408   6.718 -0.3223  0.4242 -0.0667
   10MOL     F417341   1.830   8.379   6.852 -0.3029  0.0506  0.0260
   10MOL     F517342   1.892   8.525   6.706 -0.3824 -0.1902  0.5219
   10MOL     F617343   1.924   8.331   6.656 -0.1542 -0.2760 -0.0045
   10MOL     O217344   1.457   8.536   7.166  0.5207 -0.3012 -0.5608
   10MOL    C2517345   1.275   8.139   6.573  0.0098  0.4251 -0.6476
   10MOL     N417346   1.251   8.006   6.596  0.0208 -0.0917  0.4556
   10MOL    C2617347   1.359   7.947   6.645 -0.2585  0.1927  0.5298
   10MOL     O317348   1.355   7.831   6.677 -0.2158  0.0585  0.6462
   10MOL    C2717349   1.069   8.770   7.613 -0.3356 -0.6305 -0.2482
   10MOL    C2817350   1.107   8.901   7.583  0.0548  0.0846  1.0152
   10MOL    C2917351   1.145   8.694   7.705  0.4672  0.1546  1.1298
   10MOL    C3017352   1.223   8.955   7.640 -0.5931 -0.1505 -0.4918
   10MOL    C3117353   1.255   8.750   7.769 -0.2810  0.5286  1.2112
   10MOL    C3217354   1.298   8.877   7.733 -0.0056  0.1342  0.3211
   10MOL    C3317355   1.422   8.927   7.773 -0.5941 -0.4904  0.0800
   10MOL     N517356   1.526   8.979   7.689  0.0003  0.0905  0.0870
   10MOL     N617357   1.484   8.911   7.902 -0.1944  0.1459 -0.4936
   10MOL    C3417358   1.652   8.967   7.761 -0.2129  0.2612  0.1909
   10MOL    C3517359   1.628   8.934   7.883  0.5801  0.5980 -0.4145
   10MOL    C3617360   1.416   8.892   8.033 -0.5027 -0.1553  0.1739
   10MOL     H117361   1.461   8.796   8.076  2.9398  2.1615  3.0907
   10MOL     H217362   1.311   8.878   8.008 -1.1221  1.2580  1.6138
   10MOL     H317363   1.417   8.979   8.087 -1.7562 -1.6438 -1.0083
   10MOL    C3717364   1.525   8.980   7.551  0.3392 -0.3738  0.2197
   10MOL    C3817365   1.460   8.877   7.472 -0.5246 -0.6865  0.4235
   10MOL    C3917366   1.479   8.868   7.336  0.3802 -0.5214  0.5522
   10MOL    C4017367   1.546   8.978   7.271  0.0953 -0.0678 -0.2912
   10MOL    C4117368   1.597   9.085   7.346 -0.1202 -0.0761  0.8719
   10MOL    C4217369   1.585   9.086   7.489 -0.1231  0.8247  0.0580
   10MOL    C4317370   1.730   8.896   7.987 -0.2246 -0.2109 -0.3561
   10MOL     F717371   1.684   8.815   8.087 -0.0567 -0.1850 -0.5385
   10MOL     F817372   1.776   9.007   8.039  0.3719  0.2297  0.1427
   10MOL     F917373   1.835   8.837   7.927  0.2190 -0.2936  0.1114
   10MOL    C4417374   0.768   8.716   7.418  0.1446  0.3210  0.5660
   10MOL    C4517375   0.716   8.710   7.541  0.0642 -0.2028  0.4057
   10MOL    C4617376   0.563   8.709   7.563 -0.1401  0.0154  0.0819
   10MOL    F1017377   0.511   8.814   7.498 -0.2419 -0.2329 -0.6174
   10MOL    F1117378   0.504   8.598   7.514  0.4027 -0.5671 -0.3248
   10MOL     H417379   0.721   8.731   7.319 -2.9331 -0.3886 -0.1628
   10MOL     H517380   1.019   8.922   7.329  0.2680 -2.7996  1.0952
   10MOL     H617381   1.201   8.923   7.151 -2.0982 -3.4986 -0.7308
   10MOL     H717382   1.018   8.489   7.325  1.2525  1.0420 -2.1540
   10MOL     H817383   1.194   8.491   7.141 -0.1667  1.8520 -0.7578
   10MOL     H917384   1.617   8.430   6.943 -2.2988 -1.1786  0.8093
   10MOL    H1017385   1.564   8.642   6.558  2.0826 -0.1638 -1.5032
   10MOL    H1117386   1.402   8.793   6.664  0.3820  2.5049 -2.0261
   10MOL    H1217387   1.783   8.154   6.733  1.3284  0.9288 -1.1097
   10MOL    H1317388   1.428   8.384   6.614  0.6709 -1.6585  0.3681
   10MOL    H1417389   1.641   7.946   6.738 -0.2227 -0.6531 -0.0979
   10MOL     O417390   1.200   8.221   6.521 -0.8873  0.1721  0.2392
   10MOL    H1517391   1.040   8.964   7.525 -1.9853  0.3819  1.5068
   10MOL    H1617392   1.254   9.057   7.609 -0.9936  0.1109 -2.4056
   10MOL    H1717393   1.104   8.595   7.739 -0.2043 -0.3187  2.3895
   10MOL    H1817394   1.444   8.778   7.286  0.0290 -0.5094 -1.1154
   10MOL    H1917395   1.404   8.796   7.524 -1.2632 -2.2914  3.3630
   10MOL    H2017396   1.639   9.171   7.287 -0.2109  0.5973 -1.7697
   10MOL    H2117397   1.619   9.175   7.539 -2.4423 -0.8449  1.8590
   10MOL    H2217398   1.750   8.975   7.708 -0.5021 -1.1047 -0.7342
   10MOL    H2317399   1.304   8.687   7.847  0.2593 -0.3586 -0.1083
   10MOL    F1217400   0.515   8.722   7.689  0.6048  0.1015 -0.2237
   10MOL    C4717401   0.805   8.671   7.784  0.1160 -0.4605 -0.0280
   10MOL    H2417402   0.709   8.627   7.804  1.7501  2.0958  0.8977
   10MOL    H2517403   0.817   8.766   7.840  0.4339 -0.4573  2.1611
   10MOL    H2617404   0.888   8.604   7.825  0.8317 -0.1847 -0.8062
   10MOL     N117405   1.523   7.563   6.284  0.4271 -0.0081 -0.0864
   10MOL     N217406   1.539   7.405   6.445  0.5529 -0.4296 -0.2921
   10MOL     C117407   1.463   7.512   6.402  0.4735 -0.1624  0.1213
   10MOL     C217408   1.481   7.290   6.501  0.4052  0.9843  0.0629
   10MOL     C317409   1.418   7.299   6.626  0.6209  0.0156  0.3192
   10MOL     C417410   1.342   7.190   6.675 -0.4093  0.1047  0.9916
   10MOL     C517411   1.336   7.070   6.604 -0.5084 -0.0535  0.3813
   10MOL     C617412   1.414   7.056   6.486  1.5773 -0.2971 -0.6309
   10MOL     C717413   1.475   7.171   6.427 -0.5551 -0.4275  0.4182
   10MOL     N317414   1.270   6.966   6.661 -0.4773  0.2232 -0.7057
   10MOL     C817415   1.336   6.843   6.692  1.1344  0.9784 -0.5435
   10MOL     C917416   1.222   6.757   6.729 -0.0981  0.0537  0.2340
   10MOL    C1017417   1.105   6.828   6.740 -0.1872  0.2116  0.6648
   10MOL    C1117418   1.134   6.969   6.698 -0.1517  0.9966 -0.0124
   10MOL     O117419   1.056   7.059   6.679  0.2974 -0.1483  0.0941
   10MOL    C1217420   1.216   6.618   6.724 -0.0080  0.1799  0.3270
   10MOL    C1317421   1.095   6.549   6.750  0.8825 -0.9021 -0.3659
   10MOL    C1417422   0.979   6.628   6.774 -0.4660 -0.0761 -0.9008
   10MOL    C1517423   0.981   6.766   6.759  0.1617 -1.1274  0.5491
   10MOL    C1617424   1.005   6.357   6.876  0.3107  1.0466  0.2400
   10MOL    C1717425   0.903   6.257   6.869 -0.5661 -0.1890  0.8029
   10MOL    C1817426   0.845   6.214   6.987  0.6774  0.2286  0.4449
   10MOL    C1917427   1.042   6.418   7.001  0.5284  0.0489  0.2111
   10MOL    C2017428   0.884   6.274   7.104 -0.2082 -0.1189  0.2089
   10MOL    C2117429   0.974   6.383   7.114 -0.5419  0.1466 -0.6083
   10MOL    C2217430   1.085   6.393   6.750  0.3947 -0.0896 -0.2355
   10MOL    C2317431   1.013   6.366   6.614 -0.1297  0.3439  0.2966
   10MOL     F117432   1.090   6.441   6.519 -0.2053  0.0908  0.3872
   10MOL     F217433   0.892   6.414   6.598  0.2507 -0.0431 -0.3374
   10MOL     F317434   1.005   6.240   6.568 -0.3727  0.2737  0.4202
   10MOL    C2417435   1.211   6.306   6.755 -0.7393  0.1696  0.2536
   10MOL     F417436   1.183   6.176   6.748  0.5740  0.9462 -0.1721
   10MOL     F517437   1.281   6.327   6.865  0.8001 -0.5293 -0.0450
   10MOL     F617438   1.291   6.334   6.646  0.0239 -0.2104 -0.1734
   10MOL     O217439   1.458   6.817   6.695 -0.5559  0.3035  0.0465
   10MOL    C2517440   0.739   6.115   7.011 -0.3120  0.5102  0.6649
   10MOL     N417441   0.720   6.122   7.147  0.3314 -0.6827 -0.1460
   10MOL    C2617442   0.795   6.217   7.212 -0.0187  0.3141 -0.4203
   10MOL     O317443   0.785   6.246   7.329 -0.4749 -0.4010 -0.0204
   10MOL    C2717444   1.329   7.532   6.439 -0.2042  0.2933  0.0571
   10MOL    C2817445   1.294   7.588   6.559  0.5932  0.1840 -0.1513
   10MOL    C2917446   1.228   7.478   6.349 -0.1754 -0.1155 -0.2596
   10MOL    C3017447   1.161   7.572   6.601  0.3481  0.4587  0.7358
   10MOL    C3117448   1.093   7.482   6.392 -0.7272 -0.0643  0.2413
   10MOL    C3217449   1.061   7.524   6.517 -0.1563  0.1523 -0.1261
   10MOL    C3317450   0.932   7.526   6.552  0.1773 -0.5871  0.1519
   10MOL     N517451   0.845   7.641   6.572  0.8177 -0.2626 -0.2487
   10MOL     N617452   0.871   7.427   6.629 -0.5682  0.9504 -0.6512
   10MOL    C3417453   0.730   7.596   6.639 -0.0163  0.4532  0.8712
   10MOL    C3517454   0.751   7.476   6.682 -0.2762 -0.0379 -0.1979
   10MOL    C3617455   0.875   7.282   6.588  0.5500  0.5015  0.1720
   10MOL     H117456   0.901   7.222   6.672  0.7814 -1.9753  0.5497
   10MOL     H217457   0.956   7.268   6.510  0.5107 -0.9934 -0.6003
   10MOL     H317458   0.781   7.247   6.532 -2.7899  1.1595 -0.2405
   10MOL    C3717459   0.909   7.768   6.571 -0.7204 -0.3404 -0.5378
   10MOL    C3817460   0.967   7.816   6.447 -1.0461  0.1556 -0.1674
   10MOL    C3917461   1.084   7.895   6.460  0.4811 -0.3763  0.1616
   10MOL    C4017462   1.130   7.939   6.584  0.0812 -0.8207 -0.3103
   10MOL    C4117463   1.050   7.920   6.696 -0.9886  0.0701  0.1751
   10MOL    C4217464   0.948   7.826   6.694 -0.7164 -0.7167 -0.3308
   10MOL    C4317465   0.663   7.398   6.773 -0.0890  0.3046 -0.2074
   10MOL     F717466   0.712   7.275   6.817 -0.5916  0.3831  0.0331
   10MOL     F817467   0.549   7.374   6.703 -0.1987 -0.0956 -0.3460
   10MOL     F917468   0.623   7.468   6.883 -0.3381  0.1289 -0.0231
   10MOL    C4417469   1.657   7.410   6.372  0.1639  0.3793 -0.1712
   10MOL    C4517470   1.651   7.506   6.279 -0.1025 -0.2163 -0.6394
   10MOL    C4617471   1.769   7.542   6.187 -0.2777  0.3979  0.1964
   10MOL    F1017472   1.782   7.444   6.085 -0.3899  0.1639 -0.0580
   10MOL    F1117473   1.761   7.665   6.135 -0.1065 -0.3393 -0.2945
   10MOL     H417474   1.742   7.345   6.394  1.5184 -0.6282  0.4118
   10MOL     H517475   1.420   7.394   6.681 -0.0620  2.2938  1.0183
   10MOL     H617476   1.287   7.207   6.767  2.4017 -0.7265 -3.3614
   10MOL     H717477   1.526   7.156   6.333  0.5426 -0.7269 -0.0541
   10MOL     H817478   1.415   6.961   6.435 -0.6604 -1.2541 -1.4572
   10MOL     H917479   1.304   6.564   6.701 -1.1242  1.7695 -1.3985
   10MOL    H1017480   0.884   6.576   6.794 -1.9201  0.1224 -3.1891
   10MOL    H1117481   0.886   6.817   6.756 -0.7907 -1.6193 -0.4779
   10MOL    H1217482   1.121   6.487   7.010  1.1322 -1.1224  0.2631
   10MOL    H1317483   0.870   6.225   6.767 -0.5261 -2.3294  0.3479
   10MOL    H1417484   1.001   6.432   7.208 -0.7921 -0.2607 -5.2545
   10MOL     O417485   0.687   6.044   6.931  0.2376  0.2360 -0.1399
   10MOL    H1517486   1.366   7.619   6.629  0.8326  0.3697  0.7463
   10MOL    H1617487   1.143   7.618   6.698 -0.0455 -1.2725 -0.6323
   10MOL    H1717488   1.256   7.441   6.252  0.0715 -0.0440 -1.2487
   10MOL    H1817489   1.127   7.929   6.366 -1.1680 -2.4347  2.0568
   10MOL    H1917490   0.944   7.764   6.352  0.8730  0.0215  0.0592
   10MOL    H2017491   1.082   7.975   6.787 -1.3447 -0.1876  2.0969
   10MOL    H2117492   0.902   7.795   6.786  2.1854  2.4224  0.2768
   10MOL    H2217493   0.646   7.655   6.670  0.7570 -0.1211 -0.1891
   10MOL    H2317494   1.018   7.439   6.318  3.1528 -1.3210 -0.6377
   10MOL    F1217495   1.882   7.530   6.254 -0.3922 -0.6007  0.1576
   10MOL    C4717496   1.436   7.597   6.173  0.0197  0.2019  0.4300
   10MOL    H2417497   1.399   7.511   6.106 -1.0287 -0.2148 -0.2683
   10MOL    H2517498   1.483   7.675   6.104 -0.0857  1.2640 -0.6007
   10MOL    H2617499   1.351   7.652   6.212  0.9106 -3.1463 -0.5072
   10MOL     N117500   1.045   6.070   7.512 -0.0983  0.0880  0.0690
   10MOL     N217501   1.007   6.279   7.570 -0.3302  0.3200 -0.0843
   10MOL     C117502   0.945   6.152   7.563 -0.4175 -0.0925  0.0933
   10MOL     C217503   0.967   6.386   7.651  0.1307 -0.3119  0.1647
   10MOL     C317504   0.918   6.501   7.589 -0.1703 -0.7415  0.4660
   10MOL     C417505   0.878   6.610   7.670  0.1169 -0.9767  0.6374
   10MOL     C517506   0.886   6.608   7.807  0.4413  0.7499  0.2398
   10MOL     C617507   0.942   6.492   7.872  0.0933  0.1410 -0.8525
   10MOL     C717508   0.986   6.384   7.793 -0.4059  0.1393  0.3328
   10MOL     N317509   0.824   6.714   7.876  0.5120 -0.5410  0.5084
   10MOL     C817510   0.687   6.726   7.898  0.9819 -0.0407 -0.3432
   10MOL     C917511   0.659   6.847   7.981 -0.1113 -0.3417  0.3216
   10MOL    C1017512   0.786   6.908   8.001 -0.3892 -0.9541  0.3857
   10MOL    C1117513   0.891   6.817   7.935 -0.0054  0.0084 -0.0370
   10MOL     O117514   1.011   6.835   7.936 -0.1184  0.1022 -0.2282
   10MOL    C1217515   0.549   6.886   8.053 -0.3073  0.1100  0.5409
   10MOL    C1317516   0.563   6.995   8.151 -0.3606 -0.5990  0.1159
   10MOL    C1417517   0.685   7.067   8.154  0.0462  0.5243  0.0674
   10MOL    C1517518   0.802   7.021   8.083 -0.0786  0.2783 -0.3373
   10MOL    C1617519   0.436   6.856   8.309  0.7478  0.0622 -0.0192
   10MOL    C1717520   0.553   6.781   8.332  0.3361  0.0349  0.4463
   10MOL    C1817521   0.554   6.640   8.319 -0.5116  0.8536  0.0662
   10MOL    C1917522   0.312   6.784   8.295 -0.0972  0.4121 -0.8844
   10MOL    C2017523   0.436   6.573   8.291 -0.7798  0.0761 -0.7315
   10MOL    C2117524   0.315   6.642   8.293  0.6098  0.3001 -0.4460
   10MOL    C2217525   0.449   7.005   8.255  0.1002  0.6156 -0.1940
   10MOL    C2317526   0.487   7.090   8.378 -0.0503  0.1675  0.2530
   10MOL     F117527   0.386   7.106   8.473 -0.0671 -0.1767  0.0242
   10MOL     F217528   0.534   7.207   8.344  0.2173 -0.5379  0.1644
   10MOL     F317529   0.585   7.039   8.452  0.0031 -0.1419 -0.6968
   10MOL    C2417530   0.322   7.069   8.185  0.2835  0.5114 -0.0825
   10MOL     F417531   0.354   7.194   8.147  0.0053  0.0911  0.4749
   10MOL     F517532   0.215   7.072   8.274 -0.2640 -0.2482  0.2851
   10MOL     F617533   0.275   7.009   8.071 -0.7342 -0.0117 -0.3580
   10MOL     O217534   0.602   6.652   7.846 -0.8428  0.2903  0.2438
   10MOL    C2517535   0.664   6.550   8.277 -0.4285 -0.1972 -0.4201
   10MOL     N417536   0.606   6.431   8.239 -0.1191 -0.6720 -0.4135
   10MOL    C2617537   0.473   6.437   8.243  0.2896 -0.3111  0.3540
   10MOL     O317538   0.398   6.343   8.219  0.2110 -0.1600  0.2135
   10MOL    C2717539   0.813   6.129   7.603 -0.1470 -0.0378 -0.1912
   10MOL    C2817540   0.715   6.229   7.591  0.3428  0.1215 -0.3673
   10MOL    C2917541   0.770   5.999   7.638  0.1630  0.0090 -0.4374
   10MOL    C3017542   0.579   6.195   7.608  0.0945 -0.0927 -0.2409
   10MOL    C3117543   0.636   5.969   7.661  0.1476  0.2912 -0.4556
   10MOL    C3217544   0.540   6.069   7.643 -0.2034  0.1155  0.4212
   10MOL    C3317545   0.404   6.028   7.633  0.8941  0.8153  0.0786
   10MOL     N517546   0.353   5.970   7.511  0.2491  0.5961 -0.9856
   10MOL     N617547   0.292   6.064   7.714 -0.1988  0.2796  0.0179
   10MOL    C3417548   0.215   5.974   7.520 -0.4555 -0.7985  0.0743
   10MOL    C3517549   0.178   6.020   7.639 -0.1759  0.7677  0.9388
   10MOL    C3617550   0.286   6.163   7.818  0.2669  0.3304  0.0800
   10MOL     H117551   0.222   6.246   7.792  0.1996 -2.0320 -2.3694
   10MOL     H217552   0.387   6.190   7.848 -0.5798 -0.6006 -2.2934
   10MOL     H317553   0.243   6.109   7.898 -1.3083  0.7466 -0.3232
   10MOL    C3717554   0.417   5.981   7.395  0.6568  0.1627  0.3134
   10MOL    C3817555   0.402   6.103   7.326  0.0282 -0.0855 -0.2376
   10MOL    C3917556   0.492   6.136   7.229 -0.2848 -0.2355  0.9194
   10MOL    C4017557   0.610   6.061   7.218 -0.0138 -0.1691 -0.0521
   10MOL    C4117558   0.630   5.940   7.290  0.1678  0.6377 -0.7105
   10MOL    C4217559   0.530   5.892   7.373  0.5370 -0.0003  1.0474
   10MOL    C4317560   0.034   6.033   7.691  0.2658 -0.3268  0.5447
   10MOL     F717561  -0.016   6.153   7.704 -0.6380  0.0780 -0.0069
   10MOL     F817562   0.032   5.989   7.811 -0.3470 -0.1495  0.6659
   10MOL     F917563  -0.055   5.966   7.623  0.4640  0.0179 -0.6630
   10MOL    C4417564   1.129   6.267   7.505  0.3035 -0.1033  0.4032
   10MOL    C4517565   1.159   6.145   7.479  0.3397  0.0465 -0.3620
   10MOL    C4617566   1.283   6.086   7.415  0.0759  0.0282 -0.0030
   10MOL    F1017567   1.328   5.974   7.484 -0.6155 -1.0496  0.9716
   10MOL    F1117568   1.270   6.058   7.283 -0.0330 -0.1977  0.8196
   10MOL     H417569   1.188   6.365   7.491 -0.0783  3.5672  3.3647
   10MOL     H517570   0.915   6.506   7.480  1.7573 -1.2946  1.1344
   10MOL     H617571   0.825   6.698   7.630 -0.2271 -0.0707  0.2597
   10MOL     H717572   1.036   6.301   7.831 -1.0649  1.2478  0.5429
   10MOL     H817573   0.947   6.494   7.982  4.3088  1.5640 -0.7836
   10MOL     H917574   0.466   6.822   8.055  0.7648  2.7219  0.0456
   10MOL    H1017575   0.699   7.156   8.225  0.0120 -0.9530  2.6148
   10MOL    H1117576   0.898   7.072   8.098  0.5464  1.3562  0.5022
   10MOL    H1217577   0.221   6.839   8.269 -0.4492  0.4768  0.7526
   10MOL    H1317578   0.649   6.830   8.324  1.4903  0.7671  1.9934
   10MOL    H1417579   0.231   6.585   8.279 -0.3822 -0.9809  1.1653
   10MOL     O417580   0.786   6.572   8.277 -0.3269 -0.5578 -0.0374
   10MOL    H1517581   0.739   6.322   7.543  2.2154  0.6219 -0.8710
   10MOL    H1617582   0.510   6.275   7.581 -2.2816 -0.5086  0.0426
   10MOL    H1717583   0.845   5.921   7.644  1.2822 -0.5799 -0.9722
   10MOL    H1817584   0.480   6.224   7.164  1.2692 -1.9392  3.3309
   10MOL    H1917585   0.329   6.182   7.356  1.7184 -0.3133  1.8204
   10MOL    H2017586   0.724   5.889   7.285  0.7840  0.8461 -2.0418
   10MOL    H2117587   0.561   5.812   7.444 -1.3827 -2.8108 -0.8280
   10MOL    H2217588   0.156   5.943   7.441  0.9736 -1.2129  3.0284
   10MOL    H2317589   0.601   5.866   7.682 -0.6040  1.1878  1.7852
   10MOL    F1217590   1.395   6.163   7.437 -0.5327 -0.3060  0.3152
   10MOL    C4717591   1.035   5.933   7.453  0.4012  0.2542 -0.6083
   10MOL    H2417592   0.940   5.879   7.473  1.4584 -2.0304 -0.7025
   10MOL    H2517593   1.113   5.870   7.487  0.0283 -1.0431 -1.6760
   10MOL    H2617594   1.039   5.947   7.340  1.2309 -0.8491 -1.4782
   10MOL     N117595   0.374   6.086   8.465  0.0011  1.1064  0.0349
   10MOL     N217596   0.209   6.013   8.319 -0.0306 -0.0911 -0.5775
   10MOL     C117597   0.352   6.029   8.338  0.1428 -0.5243 -0.0745
   10MOL     C217598   0.140   5.926   8.238  0.1466  0.0219  0.3542
   10MOL     C317599   0.198   5.871   8.126 -0.2108 -0.1280 -0.0745
   10MOL     C417600   0.130   5.785   8.044 -0.2519 -0.2885 -0.1112
   10MOL     C517601  -0.007   5.747   8.072  0.1186  0.0232 -0.0142
   10MOL     C617602  -0.061   5.793   8.192  0.0091  0.0833  0.0816
   10MOL     C717603   0.015   5.876   8.277 -0.3377 -0.2342  0.2948
   10MOL     N317604  -0.063   5.646   8.000  0.2850  0.0817  0.1672
   10MOL     C817605  -0.103   5.525   8.056 -0.2458  0.7337  0.7241
   10MOL     C917606  -0.109   5.429   7.942  0.1918 -0.6433 -1.1667
   10MOL    C1017607  -0.076   5.492   7.822  0.5583 -0.1766 -0.1142
   10MOL    C1117608  -0.060   5.636   7.861 -0.2868  0.7064  0.2004
   10MOL     O117609  -0.044   5.732   7.790 -0.4466  0.3620  0.0453
   10MOL    C1217610  -0.136   5.294   7.943  0.2098  0.0410  0.1195
   10MOL    C1317611  -0.144   5.213   7.822 -0.3178 -0.5721 -0.7208
   10MOL    C1417612  -0.108   5.285   7.703  0.0778  0.0244  0.4820
   10MOL    C1517613  -0.078   5.423   7.699 -0.5049  0.1305  0.4474
   10MOL    C1617614  -0.062   5.002   7.932 -0.0443 -0.3067  0.4249
   10MOL    C1717615  -0.083   4.910   8.034 -0.1571 -0.1248 -0.1570
   10MOL    C1817616   0.026   4.854   8.107 -1.0597  0.1731 -0.4042
   10MOL    C1917617   0.072   5.047   7.918  0.5213  0.4664  0.0670
   10MOL    C2017618   0.155   4.901   8.091 -0.7184  0.2001  0.5455
   10MOL    C2117619   0.182   5.004   8.002 -0.0417  0.1901  0.4362
   10MOL    C2217620  -0.168   5.063   7.835 -1.0879  0.2236  0.1709
   10MOL    C2317621  -0.318   5.041   7.876  0.5822 -0.6171  0.2652
   10MOL     F117622  -0.356   5.123   7.980 -0.3840  0.0418  0.0932
   10MOL     F217623  -0.351   4.910   7.905  0.0470 -0.6082  0.3258
   10MOL     F317624  -0.398   5.081   7.776 -0.2838 -0.2925 -0.5215
   10MOL    C2417625  -0.153   4.995   7.695  0.3469  0.2968 -0.6209
   10MOL     F417626  -0.212   4.876   7.694 -0.0317 -0.2244  0.3975
   10MOL     F517627  -0.030   4.971   7.658  0.4390 -0.5844  0.1750
   10MOL     F617628  -0.219   5.055   7.594 -0.3440  0.5806  0.0488
   10MOL     O217629  -0.120   5.498   8.174  0.4955 -0.7607  0.6847
   10MOL    C2517630   0.037   4.742   8.209 -0.6895  0.3189  0.4941
   10MOL     N417631   0.176   4.729   8.242  0.2974 -0.5662  0.1226
   10MOL    C2617632   0.246   4.827   8.181  0.0617 -0.2940  0.2408
   10MOL     O317633   0.365   4.854   8.203  0.4745 -0.0293 -0.0635
   10MOL    C2717634   0.450   6.001   8.244 -0.0183  0.1642 -0.0795
   10MOL    C2817635   0.453   6.064   8.117 -0.7223 -0.5439  0.1415
   10MOL    C2917636   0.552   5.913   8.280  0.5951  0.2106 -0.1953
   10MOL    C3017637   0.549   6.020   8.024  0.5853  0.1481 -0.4281
   10MOL    C3117638   0.655   5.877   8.186  0.3049  0.1426  0.3905
   10MOL    C3217639   0.648   5.929   8.056 -0.1905  0.0760  0.0282
   10MOL    C3317640   0.759   5.919   7.973 -0.2740 -0.2838  0.0315
   10MOL     N517641   0.855   6.023   7.961 -0.4744  0.2700  0.2946
   10MOL     N617642   0.817   5.797   7.927  0.2932 -0.2168  0.9221
   10MOL    C3417643   0.974   5.962   7.914  0.6253 -0.2912 -0.1112
   10MOL    C3517644   0.950   5.833   7.888 -0.1866  0.2391 -0.2934
   10MOL    C3617645   0.742   5.692   7.858  0.0031  0.5805 -0.1581
   10MOL     H117646   0.776   5.694   7.750  1.3958  0.4464  0.9479
   10MOL     H217647   0.634   5.709   7.868 -1.9816  1.0372 -2.3690
   10MOL     H317648   0.769   5.586   7.902  2.4483 -0.6728  1.7780
   10MOL    C3717649   0.838   6.139   8.024 -0.9925  0.1673  0.5047
   10MOL    C3817650   0.835   6.140   8.164  0.4878 -0.1644  0.0501
   10MOL    C3917651   0.754   6.232   8.238 -0.2100 -0.0195  0.4662
   10MOL    C4017652   0.679   6.330   8.168  0.2071  0.4586 -0.7610
   10MOL    C4117653   0.689   6.337   8.025  0.3593 -0.4614  0.2861
   10MOL    C4217654   0.767   6.238   7.957  0.3434 -0.2970  0.5469
   10MOL    C4317655   1.042   5.739   7.815  0.4284 -0.0124 -0.1687
   10MOL     F717656   0.984   5.712   7.693 -0.2918 -0.1387 -0.1377
   10MOL     F817657   1.059   5.620   7.880  0.0267 -0.0937 -0.6834
   10MOL     F917658   1.166   5.784   7.806  0.3612  0.1288 -0.1579
   10MOL    C4417659   0.154   6.067   8.437 -0.6428 -0.2325 -0.0509
   10MOL    C4517660   0.249   6.114   8.516 -0.0565 -0.2163 -1.1032
   10MOL    C4617661   0.222   6.165   8.653  0.4840  0.4872 -0.3041
   10MOL    F1017662   0.098   6.129   8.698 -0.5501  0.3733 -0.3310
   10MOL    F1117663   0.299   6.103   8.748 -0.1237  0.7381  0.1114
   10MOL     H417664   0.052   6.066   8.462  1.0846 -0.4367 -1.0580
   10MOL     H517665   0.300   5.902   8.102  1.4704  1.6251 -1.4552
   10MOL     H617666   0.187   5.739   7.965  0.0280 -0.5595  3.1139
   10MOL     H717667  -0.030   5.907   8.371 -1.1899  1.5777  1.0830
   10MOL     H817668  -0.164   5.767   8.216  0.4299  1.7302 -0.9554
   10MOL     H917669  -0.149   5.252   8.037 -1.2394  1.4237 -3.2296
   10MOL    H1017670  -0.096   5.240   7.607 -0.8759  0.8759 -0.7864
   10MOL    H1117671  -0.053   5.464   7.604 -1.0541 -1.3918  0.6788
   10MOL    H1217672   0.101   5.122   7.842  1.1513 -0.2999 -3.8026
   10MOL    H1317673  -0.185   4.877   8.061 -2.3085 -0.7481  1.3997
   10MOL    H1417674   0.281   5.042   8.000 -1.3737  0.0713  0.6082
   10MOL     O417675  -0.048   4.670   8.249  0.3321  0.1227  0.3357
   10MOL    H1517676   0.380   6.142   8.091 -0.3224 -0.6366  2.2521
   10MOL    H1617677   0.548   6.070   7.926 -3.2258 -0.6432 -1.8878
   10MOL    H1717678   0.557   5.866   8.383 -2.8993 -0.1823 -0.2874
   10MOL    H1817679   0.739   6.228   8.346 -1.5953 -0.0145  2.4894
   10MOL    H1917680   0.886   6.058   8.214  0.6044 -3.0456 -2.4099
   10MOL    H2017681   0.629   6.416   7.967 -0.1594  2.4060  1.0321
   10MOL    H2117682   0.768   6.233   7.848 -0.9021  2.8135  2.9952
   10MOL    H2217683   1.064   6.018   7.893  2.5182 -0.4054  1.1339
   10MOL    H2317684   0.721   5.802   8.212  1.7726  1.0280  2.8076
   10MOL    F1217685   0.229   6.300   8.672  0.2282 -0.4470 -0.1178
   10MOL    C4717686   0.505   6.126   8.528  0.2978  0.1269  0.2202
   10MOL    H2417687   0.546   6.043   8.587 -2.4778  0.8440  3.3355
   10MOL    H2517688   0.487   6.200   8.612  0.8373  1.2219 -1.7631
   10MOL    H2617689   0.573   6.167   8.457 -0.0919 -0.4451 -2.1954
   10MOL     N117690   0.637   4.803   7.885  0.6175 -0.4993  0.1073
   10MOL     N217691   0.729   4.990   7.963  0.4625 -1.4727 -0.0268
   10MOL     C117692   0.702   4.856   8.000 -0.5484 -0.6435  0.1203
   10MOL     C217693   0.776   5.092   8.050  0.0617 -0.4898  0.4294
   10MOL     C317694   0.916   5.088   8.098  0.2659  0.3259  0.4044
   10MOL     C417695   0.953   5.186   8.186 -0.2809 -0.7407  0.2114
   10MOL     C517696   0.867   5.297   8.210 -1.7122  0.1765  0.2088
   10MOL     C617697   0.746   5.306   8.142  0.1185 -0.4569  0.5505
   10MOL     C717698   0.702   5.204   8.063 -0.1757 -0.5993 -0.0652
   10MOL     N317699   0.892   5.388   8.312 -0.4589  0.9434 -0.5258
   10MOL     C817700   0.866   5.522   8.294 -0.0690  0.0225 -0.3255
   10MOL     C917701   0.904   5.583   8.422  0.6011 -0.7890 -0.3269
   10MOL    C1017702   0.945   5.486   8.509 -0.1236  0.9618  1.5201
   10MOL    C1117703   0.940   5.355   8.438 -0.0749  1.2998 -0.2573
   10MOL     O117704   0.966   5.249   8.496 -0.4556 -0.0842  0.1701
   10MOL    C1217705   0.907   5.725   8.456  0.1746 -0.3728  0.7107
   10MOL    C1317706   0.932   5.758   8.595 -0.3846  0.2994 -0.0839
   10MOL    C1417707   0.968   5.658   8.686 -0.0694  0.3725 -0.5797
   10MOL    C1517708   0.983   5.520   8.642  0.1951  0.1221 -0.0468
   10MOL    C1617709   1.053   5.923   8.739  0.6965 -0.0429 -0.0453
   10MOL    C1717710   1.181   5.893   8.685  0.6406  0.4571  0.0647
   10MOL    C1817711   1.295   5.915   8.760 -0.7874  0.6978  0.4136
   10MOL    C1917712   1.046   5.964   8.873 -0.5317 -0.0900  0.7342
   10MOL    C2017713   1.292   5.960   8.887 -1.0564 -0.0204 -0.2248
   10MOL    C2117714   1.170   5.977   8.947 -0.1584 -0.6648 -0.4754
   10MOL    C2217715   0.935   5.900   8.641  0.1109 -0.4807  0.2490
   10MOL    C2317716   0.947   6.002   8.523  0.1328  0.3232 -0.0341
   10MOL     F117717   0.982   6.126   8.576 -0.1824  0.6302  0.0319
   10MOL     F217718   0.839   6.022   8.449 -0.4138  0.3596  0.0436
   10MOL     F317719   1.043   5.975   8.427  0.0081  0.1945 -0.1693
   10MOL    C2417720   0.796   5.927   8.710 -0.2574  0.3433 -0.3389
   10MOL     F417721   0.702   5.887   8.622 -0.0888 -0.5952 -0.1767
   10MOL     F517722   0.771   6.054   8.731  0.1520 -0.6836  0.0485
   10MOL     F617723   0.769   5.859   8.827 -0.0458  0.0901  0.9375
   10MOL     O217724   0.837   5.580   8.189  0.2305  0.1529  0.2069
   10MOL    C2517725   1.438   5.896   8.716  0.1410 -0.2112  1.1974
   10MOL     N417726   1.515   5.933   8.826  0.2296  0.6084  0.1950
   10MOL    C2617727   1.437   5.969   8.938  0.6266 -0.0981 -0.5402
   10MOL     O317728   1.481   5.998   9.051  0.3719 -0.3261 -0.3545
   10MOL    C2717729   0.711   4.794   8.125 -0.1936 -0.3371  0.1019
   10MOL    C2817730   0.634   4.831   8.232  0.1017  0.1222  0.2744
   10MOL    C2917731   0.782   4.667   8.135 -0.1297  0.8465 -0.1170
   10MOL    C3017732   0.631   4.757   8.351  0.4685 -0.2752 -0.9413
   10MOL    C3117733   0.784   4.596   8.256 -0.2261  0.3552 -0.6718
   10MOL    C3217734   0.707   4.641   8.370  0.2124 -0.0272 -0.5883
   10MOL    C3317735   0.693   4.563   8.486  0.2174  0.8350  0.1505
   10MOL     N517736   0.573   4.532   8.550  0.0315 -0.4739 -0.3090
   10MOL     N617737   0.796   4.483   8.548 -0.4633  0.3029 -0.3435
   10MOL    C3417738   0.608   4.454   8.662  0.0868  0.4733  0.6195
   10MOL    C3517739   0.736   4.422   8.662  0.4898  0.0127 -0.1506
   10MOL    C3617740   0.929   4.539   8.563  0.2632 -0.2428 -0.1113
   10MOL     H117741   1.002   4.463   8.596  0.5989 -1.3601 -2.3439
   10MOL     H217742   0.932   4.634   8.624  0.6020 -0.8810 -0.3810
   10MOL     H317743   0.969   4.568   8.465 -1.6077 -2.6189 -0.3934
   10MOL    C3717744   0.453   4.538   8.486  0.0351  0.2946  0.2801
   10MOL    C3817745   0.341   4.604   8.541  0.0407  0.1586 -0.8504
   10MOL    C3917746   0.240   4.657   8.461 -0.0150 -0.4215  0.5114
   10MOL    C4017747   0.237   4.632   8.326  0.0558 -0.3604  0.0182
   10MOL    C4117748   0.339   4.554   8.269 -0.1388 -0.0048 -0.6457
   10MOL    C4217749   0.444   4.506   8.347 -0.2029  0.7910 -0.2091
   10MOL    C4317750   0.799   4.351   8.773  0.2690  0.3141 -0.5600
   10MOL     F717751   0.932   4.335   8.763  0.4799  0.6805 -0.3767
   10MOL     F817752   0.736   4.239   8.794 -0.0132  0.6879 -0.4234
   10MOL     F917753   0.773   4.429   8.878  0.2460  0.3081  0.3717
   10MOL    C4417754   0.682   5.008   7.837 -1.1510  0.0686  0.0174
   10MOL    C4517755   0.625   4.900   7.790  0.0298 -0.1651  0.3387
   10MOL    C4617756   0.557   4.888   7.660  0.1249  0.0502 -0.6675
   10MOL    F1017757   0.557   4.762   7.608 -0.3439 -0.2965  0.3008
   10MOL    F1117758   0.433   4.927   7.674  0.0803 -0.1604  0.0121
   10MOL     H417759   0.684   5.101   7.782 -2.2024  0.4868 -1.4835
   10MOL     H517760   0.982   5.005   8.078  0.3767 -2.1347  0.8016
   10MOL     H617761   1.048   5.164   8.233  0.4030  0.0042 -1.6610
   10MOL     H717762   0.599   5.205   8.017  0.6881 -2.0259  1.4803
   10MOL     H817763   0.684   5.392   8.163 -2.3699 -0.0815 -0.7192
   10MOL     H917764   0.876   5.800   8.389  0.7745  1.6523 -0.6598
   10MOL    H1017765   0.995   5.680   8.787  2.7510 -0.0527  3.7827
   10MOL    H1117766   1.033   5.452   8.716 -1.2062  0.7724  0.6796
   10MOL    H1217767   0.958   5.971   8.926 -0.5826 -1.2265 -0.5975
   10MOL    H1317768   1.189   5.865   8.589 -1.2563 -0.8998  1.2736
   10MOL    H1417769   1.162   6.021   9.046  0.4102  0.6583 -0.4436
   10MOL     O417770   1.481   5.858   8.610 -0.2262  0.4071  0.6765
   10MOL    H1517771   0.577   4.920   8.212 -1.7068 -0.1607  0.8161
   10MOL    H1617772   0.570   4.790   8.432  0.4743  3.0102  0.0476
   10MOL    H1717773   0.833   4.632   8.047 -2.2613  0.1696 -0.2898
   10MOL    H1817774   0.189   4.746   8.497  1.3791  2.3520 -0.6447
   10MOL    H1917775   0.343   4.629   8.647 -0.3895 -1.2176 -1.3938
   10MOL    H2017776   0.343   4.529   8.161  1.4005 -1.0547 -1.7276
   10MOL    H2117777   0.509   4.442   8.297 -3.5542 -2.1472  2.5773
   10MOL    H2217778   0.527   4.433   8.740 -0.4367  1.8480  1.3218
   10MOL    H2317779   0.836   4.501   8.256 -1.2137  1.0247 -1.2017
   10MOL    F1217780   0.612   4.958   7.567  0.1514 -0.6643 -0.0126
   10MOL    C4717781   0.528   4.706   7.901 -0.2204  0.3463 -1.1105
   10MOL    H2417782   0.565   4.618   7.846  2.0193  1.2501  1.2501
   10MOL    H2517783   0.434   4.729   7.855  0.8345  1.2518 -2.6725
   10MOL    H2617784   0.534   4.686   8.018  0.0004  0.6965 -0.0135
   10MOL     N117785   1.511   6.036   9.394  0.5349  0.6654  0.3000
   10MOL     N217786   1.411   5.827   9.365 -0.2734 -0.7231 -0.1181
   10MOL     C117787   1.528   5.906   9.335 -0.0529  0.3434  0.5662
   10MOL     C217788   1.364   5.704   9.315 -0.1405 -0.6107  0.7752
   10MOL     C317789   1.365   5.666   9.173 -0.3845 -0.1868  0.0380
   10MOL     C417790   1.315   5.545   9.131 -0.5106  0.7688  0.4312
   10MOL     C517791   1.261   5.455   9.222 -1.0199 -0.7642  0.0003
   10MOL     C617792   1.245   5.493   9.354 -0.6184  0.3065  0.4930
   10MOL     C717793   1.301   5.620   9.404 -0.1297 -0.5261 -0.1628
   10MOL     N317794   1.208   5.336   9.168  0.6644  0.1644  0.1797
   10MOL     C817795   1.137   5.341   9.048  0.5265  0.1064  0.5765
   10MOL     C917796   1.104   5.201   9.016 -0.0708  0.3820  0.0781
   10MOL    C1017797   1.159   5.122   9.117  0.3505  0.3153 -0.7376
   10MOL    C1117798   1.231   5.207   9.216 -0.1931 -0.1801 -0.5423
   10MOL     O117799   1.305   5.169   9.306  0.3570  0.1827 -0.6903
   10MOL    C1217800   1.031   5.145   8.905  0.0480 -0.2158  0.1314
   10MOL    C1317801   1.006   5.008   8.902 -0.4126  0.0424  0.0421
   10MOL    C1417802   1.065   4.931   9.006  0.0063 -0.0822  0.1062
   10MOL    C1517803   1.143   4.984   9.109  0.1311  0.2157  0.3115
   10MOL    C1617804   0.971   4.914   8.666  0.5381  0.1919  0.1041
   10MOL    C1717805   1.097   4.853   8.661  0.3272  0.3365  0.7916
   10MOL    C1817806   1.137   4.796   8.536  0.2238 -0.2967  0.6284
   10MOL    C1917807   0.894   4.915   8.544 -0.9358  0.2085  0.4314
   10MOL    C2017808   1.061   4.805   8.422  0.4075 -0.0514 -0.3832
   10MOL    C2117809   0.936   4.855   8.432  0.4184 -0.0977  0.6914
   10MOL    C2217810   0.904   4.943   8.801  0.2510 -0.4020  0.0532
   10MOL    C2317811   0.854   4.813   8.860  0.6758  0.1507  0.7069
   10MOL     F117812   0.739   4.764   8.787 -0.5098  0.0043  0.1090
   10MOL     F217813   0.807   4.816   8.988 -0.3546 -0.1533  0.0391
   10MOL     F317814   0.948   4.721   8.853  0.1278 -0.2608  0.0029
   10MOL    C2417815   0.782   5.044   8.783 -0.3473  0.4221  0.4161
   10MOL     F417816   0.745   5.076   8.904 -0.3120  0.1267 -0.2084
   10MOL     F517817   0.670   4.998   8.719  0.0758 -0.2377 -0.2335
   10MOL     F617818   0.815   5.154   8.711 -0.1714 -0.5117 -0.0495
   10MOL     O217819   1.098   5.443   8.988 -0.0366 -0.2538 -0.1092
   10MOL    C2517820   1.256   4.719   8.495  0.4039  0.3632  0.0703
   10MOL     N417821   1.240   4.672   8.366 -0.0304 -0.3736  0.6479
   10MOL    C2617822   1.125   4.732   8.312  0.7252 -0.2175  0.1356
   10MOL     O317823   1.094   4.722   8.199 -0.1199 -0.1388 -0.0348
   10MOL    C2717824   1.648   5.864   9.282 -0.4050  0.9942 -0.7228
   10MOL    C2817825   1.651   5.796   9.161 -0.2580  0.5824  0.5167
   10MOL    C2917826   1.772   5.894   9.338 -0.6162 -0.4645 -0.1318
   10MOL    C3017827   1.769   5.731   9.116 -0.5983  0.2298  0.4915
   10MOL    C3117828   1.895   5.859   9.274  0.3827  0.1187 -0.3758
   10MOL    C3217829   1.894   5.773   9.167 -0.1009 -0.1388 -0.5929
   10MOL    C3317830   2.014   5.757   9.099 -0.3268 -0.1282  0.3033
   10MOL     N517831   2.025   5.790   8.964  0.3371 -0.4606 -0.7880
   10MOL     N617832   2.135   5.697   9.147  0.8521  0.2752 -0.3353
   10MOL    C3417833   2.160   5.776   8.933 -0.2658 -0.2550  0.4416
   10MOL    C3517834   2.225   5.736   9.040  0.1424  0.2086 -0.0163
   10MOL    C3617835   2.136   5.551   9.190 -0.5286 -0.1040  0.7056
   10MOL     H117836   2.245   5.525   9.213  2.3850  1.5627  0.7864
   10MOL     H217837   2.070   5.488   9.129  1.7447 -0.1964  0.3320
   10MOL     H317838   2.071   5.544   9.271 -1.2715  0.2493 -0.8641
   10MOL    C3717839   1.923   5.841   8.889  0.0276 -0.3315  0.0240
   10MOL    C3817840   1.876   5.970   8.921  0.2060  0.1014  0.5340
   10MOL    C3917841   1.743   6.011   8.888 -0.4369 -0.2108 -0.1663
   10MOL    C4017842   1.657   5.916   8.825  0.0370 -0.1395 -0.8625
   10MOL    C4117843   1.705   5.791   8.784  0.0371 -0.7135  0.3963
   10MOL    C4217844   1.843   5.758   8.818 -0.0628  0.2938  0.0035
   10MOL    C4317845   2.371   5.747   9.063 -0.1599  0.7763  0.0219
   10MOL     F717846   2.399   5.708   9.187 -0.1246 -0.5010  0.6462
   10MOL     F817847   2.423   5.870   9.050 -0.1981  0.4456 -0.5276
   10MOL     F917848   2.429   5.660   8.976 -0.3860 -0.1282 -0.6046
   10MOL    C4417849   1.342   5.902   9.458  0.2275  0.6365  0.0552
   10MOL    C4517850   1.402   6.015   9.489  0.4321  0.5990  0.0122
   10MOL    C4617851   1.357   6.091   9.611 -0.5041 -0.1131  0.7223
   10MOL    F1017852   1.232   6.064   9.641  0.2373  0.5387  0.6245
   10MOL    F1117853   1.439   6.065   9.710 -0.9111 -0.0549  0.5473
   10MOL     H417854   1.258   5.866   9.510 -0.3910  3.1018 -0.3249
   10MOL     H517855   1.391   5.723   9.088 -4.2835 -0.4730  1.1653
   10MOL     H617856   1.321   5.522   9.025 -1.3012 -0.2612  1.2947
   10MOL     H717857   1.282   5.639   9.506  0.7296 -0.3923 -0.1509
   10MOL     H817858   1.189   5.436   9.422  0.4587 -1.3105  0.0236
   10MOL     H917859   0.994   5.216   8.840  1.5398 -0.7449 -1.3355
   10MOL    H1017860   1.048   4.827   9.005 -0.6309  1.7022 -1.4012
   10MOL    H1117861   1.190   4.916   9.187  2.6254 -0.2797 -0.3183
   10MOL    H1217862   0.788   4.945   8.543  1.1510 -1.1500  0.5467
   10MOL    H1317863   1.175   4.849   8.739  2.1250  0.3590  0.7852
   10MOL    H1417864   0.875   4.857   8.340 -0.0714  1.4689  0.7956
   10MOL     O417865   1.344   4.691   8.570  0.0623  0.1717  0.2307
   10MOL    H1517866   1.566   5.785   9.101  0.5368  3.1597  1.6360
   10MOL    H1617867   1.746   5.674   9.034 -1.4056  1.0843  2.5378
   10MOL    H1717868   1.772   5.968   9.418 -1.1556 -1.3825  0.7344
   10MOL    H1817869   1.705   6.113   8.914  2.9560  0.8850 -1.7520
   10MOL    H1917870   1.943   6.024   8.989  3.8124  0.7886  0.2865
   10MOL    H2017871   1.634   5.717   8.755 -1.4336 -1.0244  2.8126
   10MOL    H2117872   1.873   5.657   8.799 -1.2095  3.0085 -0.2729
   10MOL    H2217873   2.198   5.821   8.844 -0.7288 -0.4766 -1.5295
   10MOL    H2317874   1.987   5.899   9.316  1.4969 -0.2326  2.7898
   10MOL    F1217875   1.351   6.222   9.592  0.3599  0.2717  0.0891
   10MOL    C4717876   1.505   6.164   9.314 -0.3657  0.7599 -0.2034
   10MOL    H2417877   1.509   6.251   9.376  1.3073 -1.3182  1.1435
   10MOL    H2517878   1.413   6.163   9.245 -0.3439 -0.9380 -1.1805
   10MOL    H2617879   1.600   6.156   9.256 -1.0306 -1.1579 -4.0215
   10MOL     N117880   1.559   4.605   7.468  0.1031 -0.2069  0.7209
   10MOL     N217881   1.747   4.720   7.506 -0.8473 -0.3994 -0.2927
   10MOL     C117882   1.669   4.612   7.562 -0.1607  0.2530  0.5896
   10MOL     C217883   1.859   4.784   7.573 -0.2275  0.2517 -0.8511
   10MOL     C317884   1.861   4.798   7.712  0.1368  0.1405 -0.2689
   10MOL     C417885   1.970   4.867   7.772 -0.2982  0.4391  0.1009
   10MOL     C517886   2.077   4.904   7.697  0.7026 -0.7828 -0.6995
   10MOL     C617887   2.082   4.883   7.557  0.1210 -0.0712 -0.3780
   10MOL     C717888   1.972   4.821   7.501  0.2645 -0.9256 -0.6814
   10MOL     N317889   2.189   4.965   7.762  0.1124 -0.1595 -0.1436
   10MOL     C817890   2.237   5.089   7.715 -0.2344  1.0438 -0.0499
   10MOL     C917891   2.341   5.127   7.817 -0.1685 -0.1382  0.0431
   10MOL    C1017892   2.348   5.025   7.906 -0.3913  0.2635  0.1252
   10MOL    C1117893   2.255   4.915   7.872 -0.9304 -0.7255 -0.7287
   10MOL     O117894   2.235   4.807   7.931 -0.3089 -0.0450 -0.2854
   10MOL    C1217895   2.412   5.246   7.825 -0.3515 -0.4624  0.3266
   10MOL    C1317896   2.501   5.257   7.941 -0.5335 -0.2057  0.1531
   10MOL    C1417897   2.524   5.139   8.023  0.8471 -0.5919 -0.7553
   10MOL    C1517898   2.443   5.026   8.005  0.1690  0.2007 -0.0038
   10MOL    C1617899   2.472   5.498   8.011  0.3569  0.2473 -0.3472
   10MOL    C1717900   2.497   5.638   7.994 -0.1328  0.2619  0.3304
   10MOL    C1817901   2.397   5.730   8.034 -0.5452 -0.1063 -0.3664
   10MOL    C1917902   2.351   5.458   8.075 -0.4605 -0.4433 -0.8847
   10MOL    C2017903   2.281   5.690   8.097  0.2494  0.6517 -0.2988
   10MOL    C2117904   2.254   5.555   8.113 -0.1375  0.4117 -0.0103
   10MOL    C2217905   2.572   5.393   7.965 -0.4834  0.3001 -0.2517
   10MOL    C2317906   2.672   5.382   8.084 -0.1568 -0.2250 -0.1717
   10MOL     F117907   2.723   5.505   8.114  0.3340  0.0397  0.3848
   10MOL     F217908   2.770   5.297   8.055 -0.4270  0.2807  0.2930
   10MOL     F317909   2.620   5.336   8.200 -0.1618 -0.3005 -0.3269
   10MOL    C2417910   2.654   5.432   7.833  0.0099 -0.2488 -0.1921
   10MOL     F417911   2.710   5.325   7.764 -0.1214  0.7496 -0.1569
   10MOL     F517912   2.752   5.515   7.864 -0.2627 -0.5412 -0.4656
   10MOL     F617913   2.585   5.501   7.732  0.0769  0.6367 -0.3527
   10MOL     O217914   2.210   5.140   7.609  0.6438 -0.0929  0.0048
   10MOL    C2517915   2.390   5.877   8.023  0.7021 -0.2996  0.4356
   10MOL     N417916   2.273   5.919   8.086  0.0416 -0.4015  0.5369
   10MOL    C2617917   2.205   5.811   8.137  0.4291 -0.4686  0.2089
   10MOL     O317918   2.111   5.807   8.210  0.1589 -0.5588  0.0988
   10MOL    C2717919   1.684   4.541   7.677 -0.4853  0.8436  0.0215
   10MOL    C2817920   1.640   4.589   7.797 -0.4174  0.4675  0.9958
   10MOL    C2917921   1.750   4.415   7.677 -0.2478  0.3790 -0.4609
   10MOL    C3017922   1.662   4.521   7.912  0.0600 -0.0540  0.4365
   10MOL    C3117923   1.756   4.337   7.794 -0.0811 -0.0343 -0.4425
   10MOL    C3217924   1.705   4.387   7.913  0.1427 -0.9268  0.1232
   10MOL    C3317925   1.709   4.319   8.030  0.0670  0.1141  0.3743
   10MOL     N517926   1.601   4.307   8.124 -0.1758  0.5216  0.1183
   10MOL     N617927   1.795   4.198   8.047  0.1094  0.1238 -0.0546
   10MOL    C3417928   1.615   4.183   8.181 -0.3744 -0.2549 -0.1734
   10MOL    C3517929   1.729   4.125   8.146 -0.0387  1.3358  0.1172
   10MOL    C3617930   1.940   4.199   8.015 -0.1229  0.4924  0.6018
   10MOL     H117931   1.998   4.178   8.114  1.1678 -1.3138  1.9730
   10MOL     H217932   1.968   4.294   7.964  0.0719 -0.4465  1.6455
   10MOL     H317933   1.959   4.114   7.945 -2.3846 -0.8923  0.0985
   10MOL    C3717934   1.515   4.405   8.173  0.5953  0.1930 -0.0950
   10MOL    C3817935   1.563   4.519   8.244  0.2678 -0.1430 -0.6088
   10MOL    C3917936   1.471   4.615   8.295  0.5247  0.2289  0.0489
   10MOL    C4017937   1.330   4.588   8.294  0.0632 -0.0299 -0.1375
   10MOL    C4117938   1.283   4.476   8.219 -0.2909  0.6408  0.4320
   10MOL    C4217939   1.380   4.394   8.158  0.6618 -0.5721  0.8497
   10MOL    C4317940   1.788   3.989   8.193 -0.4056  0.2606  0.1247
   10MOL     F717941   1.927   3.995   8.196 -0.4953  0.5762 -0.4089
   10MOL     F817942   1.755   3.900   8.105  0.1843  0.1554 -0.7557
   10MOL     F917943   1.732   3.955   8.311  0.9896 -0.2230  0.6719
   10MOL    C4417944   1.700   4.749   7.377 -0.3401 -0.2432  0.1232
   10MOL    C4517945   1.589   4.678   7.356 -0.3867 -0.3516  0.4709
   10MOL    C4617946   1.510   4.683   7.220  0.4506  0.2570  0.2440
   10MOL    F1017947   1.420   4.584   7.209  0.9618  0.1757 -0.0370
   10MOL    F1117948   1.464   4.811   7.203  0.2410 -0.1184 -0.1692
   10MOL     H417949   1.753   4.816   7.310 -1.2446  0.1568 -0.7745
   10MOL     H517950   1.771   4.792   7.776  1.5362 -1.7133  1.2418
   10MOL     H617951   1.963   4.889   7.884  0.1810  0.0269  0.6542
   10MOL     H717952   1.979   4.807   7.395  3.1956 -0.3606  1.3135
   10MOL     H817953   2.174   4.895   7.505 -1.2618 -1.2222  0.7485
   10MOL     H917954   2.390   5.314   7.747 -1.6974 -2.3603 -1.0150
   10MOL    H1017955   2.577   5.141   8.115 -1.8945 -1.8621  0.6835
   10MOL    H1117956   2.456   4.937   8.066  0.1522 -1.0841 -2.1768
   10MOL    H1217957   2.330   5.350   8.082  1.0993  3.2893  0.7479
   10MOL    H1317958   2.595   5.666   7.952  3.5306  0.7595  1.4802
   10MOL    H1417959   2.162   5.523   8.144  1.7631  1.2205  0.7084
   10MOL     O417960   2.469   5.956   7.969  0.3204 -0.1307  0.3880
   10MOL    H1517961   1.603   4.690   7.794 -1.9252  0.0310 -2.2543
   10MOL    H1617962   1.645   4.574   8.003  0.8111 -0.6906  0.7199
   10MOL    H1717963   1.787   4.376   7.582  0.3069 -2.7008  2.0250
   10MOL    H1817964   1.514   4.703   8.353  1.8047  0.7151  1.9909
   10MOL    H1917965   1.669   4.549   8.257 -0.6602 -1.7410 -1.8142
   10MOL    H2017966   1.182   4.446   8.213 -1.3309  1.5533 -0.8443
   10MOL    H2117967   1.352   4.300   8.107  1.0162  0.6799 -0.6834
   10MOL    H2217968   1.530   4.151   8.245  0.9836  1.1141 -0.3773
   10MOL    H2317969   1.802   4.234   7.789 -0.0044  0.6098 -1.3157
   10MOL    F1217970   1.590   4.653   7.118  0.4041 -0.4120  0.4654
   10MOL    C4717971   1.434   4.526   7.493  0.1483 -0.3961  0.1970
   10MOL    H2417972   1.461   4.427   7.530  0.4072 -1.6128 -0.7227
   10MOL    H2517973   1.376   4.518   7.400  0.8902 -2.1965 -0.0894
   10MOL    H2617974   1.371   4.567   7.566 -3.8427  0.4891 -0.3811
   10MOL     N117975   2.896   6.671   8.330  0.4984 -0.5104 -0.1211
   10MOL     N217976   2.879   6.607   8.110  0.7016 -0.0871 -0.0600
   10MOL     C117977   2.809   6.615   8.236  0.3475 -1.3887 -0.3262
   10MOL     C217978   2.849   6.523   7.999 -0.4459 -0.3237 -0.1645
   10MOL     C317979   2.743   6.553   7.908  1.1792  1.4329  0.0227
   10MOL     C417980   2.742   6.481   7.786  0.7369 -0.3614 -0.0619
   10MOL     C517981   2.840   6.382   7.756  0.5937 -0.1248 -0.4646
   10MOL     C617982   2.935   6.355   7.850 -0.0993  0.1822  0.3371
   10MOL     C717983   2.943   6.425   7.969  0.0338  0.2449  0.3207
   10MOL     N317984   2.826   6.307   7.633  0.3219  0.7235  0.5223
   10MOL     C817985   2.885   6.355   7.517 -0.3967  0.0808 -0.4374
   10MOL     C917986   2.884   6.234   7.427  0.8153  0.2320 -0.6965
   10MOL    C1017987   2.829   6.128   7.497 -0.0431 -0.3810 -0.2551
   10MOL    C1117988   2.780   6.175   7.629 -0.3815 -0.2028 -0.1012
   10MOL     O117989   2.723   6.112   7.720 -0.2013  0.0904 -0.3149
   10MOL    C1217990   2.929   6.228   7.302  0.4070  0.7644 -0.3416
   10MOL    C1317991   2.950   6.099   7.246 -0.4824 -0.0765 -0.5661
   10MOL    C1417992   2.910   5.989   7.320  0.2168  0.4164 -0.2081
   10MOL    C1517993   2.847   6.000   7.444  0.3969 -0.5063  0.3444
   10MOL    C1617994   2.952   5.952   7.025 -0.8604  0.1528  0.2653
   10MOL    C1717995   2.804   5.942   7.018  0.2731 -0.0444 -0.0266
   10MOL    C1817996   2.749   5.832   6.951  0.2497 -0.0383 -0.0206
   10MOL    C1917997   3.027   5.845   6.972  0.6907  0.0201  0.8670
   10MOL    C2017998   2.824   5.736   6.888  0.1319 -0.3278 -0.6530
   10MOL    C2117999   2.963   5.743   6.899 -0.3352 -0.8463  0.4887
   10MOL    C2218000   3.023   6.067   7.108 -0.4161  0.3465 -0.0043
   10MOL    C2318001   3.017   6.195   7.012 -0.4376 -0.3105 -0.5264
   10MOL     F118002   3.075   6.169   6.890 -0.4755 -0.3325 -0.4272
   10MOL     F218003   3.085   6.300   7.061 -0.5276  0.2200  0.2367
   10MOL     F318004   2.889   6.243   6.992 -0.0408  0.3865  0.1575
   10MOL    C2418005   3.174   6.036   7.143  0.1277 -0.2919 -0.6253
   10MOL     F418006   3.226   6.131   7.214  0.0614  0.1474  0.0090
   10MOL     F518007   3.253   6.026   7.033 -0.0438  0.1043 -0.2034
   10MOL     F618008   3.193   5.915   7.208  0.3817 -0.4123 -0.0057
   10MOL     O218009   2.945   6.453   7.497 -0.1200 -0.2857  0.1147
   10MOL    C2518010   2.606   5.798   6.943 -0.0138 -0.3189  0.0317
   10MOL     N418011   2.605   5.679   6.867  0.4215  0.5391 -0.6460
   10MOL    C2618012   2.728   5.646   6.821  0.3320 -0.4366  0.2137
   10MOL     O318013   2.749   5.558   6.742 -0.5470 -0.0840 -0.3465
   10MOL    C2718014   2.677   6.572   8.268  0.6491 -0.6749 -0.5000
   10MOL    C2818015   2.568   6.602   8.192 -0.6325  0.0135 -0.0120
   10MOL    C2918016   2.659   6.508   8.392  0.2982  0.6581  0.0560
   10MOL    C3018017   2.442   6.578   8.245  0.1085 -0.7381  0.1209
   10MOL    C3118018   2.535   6.477   8.439 -0.3689  0.2147 -0.3329
   10MOL    C3218019   2.423   6.516   8.371 -0.4071 -0.4695 -0.3842
   10MOL    C3318020   2.296   6.497   8.415 -0.0127  0.7228  0.1726
   10MOL     N518021   2.196   6.418   8.352 -0.5405 -0.0851 -0.1827
   10MOL     N618022   2.245   6.573   8.525 -0.1127 -0.6064 -0.1312
   10MOL    C3418023   2.081   6.450   8.428  0.1599  0.0923 -0.0042
   10MOL    C3518024   2.110   6.537   8.527 -0.4023  0.9291 -0.0787
   10MOL    C3618025   2.297   6.709   8.572 -0.1977  0.6899 -0.0231
   10MOL     H118026   2.227   6.747   8.649 -0.2017  0.4832 -2.0004
   10MOL     H218027   2.305   6.772   8.480 -0.4995  0.6039 -0.2214
   10MOL     H318028   2.392   6.723   8.615 -0.3836 -0.4523 -2.8128
   10MOL    C3718029   2.217   6.295   8.279 -0.1596  0.5850  0.0549
   10MOL    C3818030   2.126   6.251   8.183  0.0572 -0.1348  0.0691
   10MOL    C3918031   2.143   6.134   8.117 -0.0463 -0.3920  0.5480
   10MOL    C4018032   2.260   6.056   8.139 -0.1493  1.0306  0.0956
   10MOL    C4118033   2.358   6.102   8.231  0.2020 -0.1748  0.3834
   10MOL    C4218034   2.325   6.215   8.314 -0.0635  0.1615  0.8060
   10MOL    C4318035   2.007   6.585   8.625 -0.6155  0.1953  0.0657
   10MOL     F718036   2.058   6.602   8.750  0.2046 -0.2239 -0.0246
   10MOL     F818037   1.905   6.501   8.630  0.3062 -0.4406  0.1100
   10MOL     F918038   1.959   6.709   8.583  0.4294 -0.2093  0.1295
   10MOL    C4418039   3.009   6.639   8.146 -0.1185  0.5830  0.3585
   10MOL    C4518040   3.020   6.673   8.271 -0.7039 -0.0192  0.3964
   10MOL    C4618041   3.151   6.709   8.338 -0.3446 -0.1447  0.6114
   10MOL    F1018042   3.147   6.841   8.376 -0.4941 -0.0167 -0.0418
   10MOL    F1118043   3.170   6.635   8.449 -0.0911 -0.4158  0.6432
   10MOL     H418044   3.085   6.647   8.074 -1.7620 -1.1487  0.2138
   10MOL     H518045   2.663   6.632   7.932 -2.5589 -1.0198 -1.4441
   10MOL     H618046   2.661   6.503   7.712 -1.1969 -0.6842 -1.2448
   10MOL     H718047   3.032   6.406   8.026  2.1928  1.1472 -2.7264
   10MOL     H818048   3.004   6.275   7.829 -2.4177 -3.6608  1.0815
   10MOL     H918049   2.968   6.321   7.257 -1.3684  1.3886  0.1130
   10MOL    H1018050   2.940   5.891   7.282 -1.6857  0.7649 -0.1056
   10MOL    H1118051   2.821   5.909   7.494 -0.7567 -1.4332  0.1372
   10MOL    H1218052   3.137   5.853   6.973  1.5765  1.3377 -0.7762
   10MOL    H1318053   2.747   6.009   7.072  1.5212 -1.3871 -1.6033
   10MOL    H1418054   3.018   5.664   6.857 -1.9699 -0.9259 -1.6709
   10MOL     O418055   2.516   5.857   6.999  0.7568  0.1150  0.5561
   10MOL    H1518056   2.575   6.665   8.109  0.0022  0.6333 -0.3212
   10MOL    H1618057   2.365   6.594   8.176  0.7326 -0.3044 -3.3912
   10MOL    H1718058   2.745   6.488   8.466 -1.9634 -0.7294  2.5349
   10MOL    H1818059   2.057   6.088   8.058 -1.3901 -3.0327 -1.4997
   10MOL    H1918060   2.036   6.306   8.160  0.1818  0.1425  2.8798
   10MOL    H2018061   2.450   6.043   8.248  0.2515 -0.1525 -1.1229
   10MOL    H2118062   2.396   6.262   8.386 -0.7436  2.1359 -1.1269
   10MOL    H2218063   1.983   6.407   8.410  2.2672  1.5574  0.5580
   10MOL    H2318064   2.533   6.429   8.537  0.4222 -1.5335 -0.6830
   10MOL    F1218065   3.252   6.689   8.258  0.3110  0.2044  0.4891
   10MOL    C4718066   2.853   6.786   8.413  0.4836  0.3539 -1.0416
   10MOL    H2418067   2.803   6.868   8.356 -1.1160 -0.2233  0.0658
   10MOL    H2518068   2.940   6.829   8.468  1.3923  1.2090  1.7379
   10MOL    H2618069   2.776   6.738   8.480 -0.4819 -0.1436  0.1957
   10MOL     N118070   2.141   5.682   7.460 -0.6818 -0.2292  0.0618
   10MOL     N218071   2.048   5.487   7.509  0.1481  0.0595 -1.1994
   10MOL     C118072   2.077   5.567   7.403  0.3106  0.0225  0.0044
   10MOL     C218073   1.955   5.383   7.512  0.0965  0.4370 -0.2201
   10MOL     C318074   1.849   5.380   7.418 -0.1218  0.8604 -0.5463
   10MOL     C418075   1.757   5.276   7.420 -0.8456  0.2114 -0.0793
   10MOL     C518076   1.772   5.170   7.508 -0.4762  0.3007 -0.3702
   10MOL     C618077   1.871   5.178   7.608 -0.3945  0.1390 -0.0733
   10MOL     C718078   1.965   5.278   7.606  0.1274 -0.2200  0.2837
   10MOL     N318079   1.671   5.075   7.531 -0.2377  0.4486  0.9009
   10MOL     C818080   1.629   5.043   7.659 -0.7707  0.1671 -0.4531
   10MOL     C918081   1.501   4.972   7.646 -0.6680 -0.7460  0.0788
   10MOL    C1018082   1.457   4.980   7.516 -0.2148  0.3944 -0.0199
   10MOL    C1118083   1.574   5.040   7.434  0.0335  0.0206  0.0930
   10MOL     O118084   1.592   5.045   7.318  0.1838  0.2886  0.3162
   10MOL    C1218085   1.415   4.925   7.745 -0.2765 -0.3561  0.0989
   10MOL    C1318086   1.287   4.882   7.712 -0.2980  0.0396 -0.4019
   10MOL    C1418087   1.244   4.898   7.578 -0.4732  0.0113  1.0315
   10MOL    C1518088   1.331   4.939   7.476  0.1942 -0.9889 -0.3018
   10MOL    C1618089   1.244   4.934   7.954 -0.2907 -0.4553 -0.0791
   10MOL    C1718090   1.208   5.067   7.929  0.1700 -0.8185 -0.0699
   10MOL    C1818091   1.249   5.172   8.018  0.5536 -0.6049 -0.0354
   10MOL    C1918092   1.329   4.915   8.072  0.1684 -0.2311  0.1712
   10MOL    C2018093   1.335   5.149   8.119  0.0765  0.2508 -0.3301
   10MOL    C2118094   1.369   5.022   8.155  0.4030  0.5979 -0.2660
   10MOL    C2218095   1.208   4.831   7.837 -0.0967  0.3991 -0.0171
   10MOL    C2318096   1.049   4.823   7.832 -0.3208 -0.5052  0.3831
   10MOL     F118097   1.004   4.709   7.774 -0.0794 -0.4755  0.4944
   10MOL     F218098   0.991   4.928   7.766 -0.1799 -0.0444  0.2638
   10MOL     F318099   0.999   4.812   7.952 -0.2400 -0.4254  0.0827
   10MOL    C2418100   1.268   4.687   7.866  0.4004  0.1441 -0.3676
   10MOL     F418101   1.403   4.681   7.842  0.2326 -0.4214  0.1840
   10MOL     F518102   1.217   4.586   7.789 -0.5788 -0.1599 -0.0651
   10MOL     F618103   1.250   4.648   7.989 -0.3294  0.7658 -0.1012
   10MOL     O218104   1.689   5.042   7.766  0.5437  0.1690  0.2825
   10MOL    C2518105   1.224   5.317   8.011  0.2942 -0.0977 -0.0646
   10MOL     N418106   1.306   5.376   8.107 -0.7900  0.1559 -0.0376
   10MOL    C2618107   1.374   5.280   8.172  0.3560  0.0278  0.6128
   10MOL     O318108   1.452   5.304   8.262  0.1795  0.1367  0.4571
   10MOL    C2718109   2.053   5.539   7.269 -0.4860 -0.0252  0.1124
   10MOL    C2818110   1.991   5.636   7.191  0.0986  1.1527 -0.1395
   10MOL    C2918111   2.104   5.422   7.222  0.2012  0.0214  0.1933
   10MOL    C3018112   1.980   5.610   7.057  0.1248  0.2618  0.5937
   10MOL    C3118113   2.076   5.392   7.089  0.2125  0.7792  0.0273
   10MOL    C3218114   2.022   5.486   7.001 -0.2152  0.6429 -0.0658
   10MOL    C3318115   2.005   5.454   6.866  0.0855  0.6754 -0.7952
   10MOL     N518116   2.110   5.434   6.771 -0.2362  0.4539 -0.3392
   10MOL     N618117   1.883   5.422   6.800 -0.3603  0.4953  0.1030
   10MOL    C3418118   2.049   5.357   6.672 -0.6319  0.1999  0.1774
   10MOL    C3518119   1.921   5.360   6.684 -0.5267 -0.1264  0.5967
   10MOL    C3618120   1.765   5.390   6.884  0.8257 -0.6448  1.3679
   10MOL     H118121   1.757   5.280   6.877  0.4931 -1.9226  0.5205
   10MOL     H218122   1.682   5.448   6.827 -0.9566  1.4980  0.0293
   10MOL     H318123   1.764   5.433   6.989 -0.3463  0.2743 -0.2191
   10MOL    C3718124   2.235   5.493   6.778 -0.2609 -0.2010 -0.0117
   10MOL    C3818125   2.244   5.635   6.778 -0.2775  0.1615  0.3478
   10MOL    C3918126   2.371   5.688   6.803 -0.1203  0.2688 -0.3428
   10MOL    C4018127   2.488   5.620   6.822 -0.9535 -0.1217 -0.3260
   10MOL    C4118128   2.471   5.476   6.814  0.0525 -0.4628 -0.1913
   10MOL    C4218129   2.347   5.417   6.795  0.9051 -0.4414 -0.1183
   10MOL    C4318130   1.812   5.314   6.588 -0.1384  0.8046 -0.3153
   10MOL     F718131   1.728   5.220   6.640 -0.2763 -0.2905  0.1223
   10MOL     F818132   1.865   5.263   6.481  0.1820  0.1054  0.7398
   10MOL     F918133   1.743   5.419   6.550  0.1355  0.1226 -0.1092
   10MOL    C4418134   2.122   5.537   7.621  0.6455 -0.6758 -0.4190
   10MOL    C4518135   2.185   5.651   7.591 -0.4322  0.1695  0.3948
   10MOL    C4618136   2.291   5.726   7.674 -1.0513 -0.3401  0.3326
   10MOL    F1018137   2.342   5.631   7.756 -0.0767 -0.2807 -0.2459
   10MOL    F1118138   2.391   5.770   7.599  0.0790 -0.2761  0.2470
   10MOL     H418139   2.132   5.479   7.707 -0.3090 -1.9158 -1.8494
   10MOL     H518140   1.821   5.467   7.366  1.1819  0.4653 -1.4303
   10MOL     H618141   1.677   5.280   7.350  1.0358 -1.4636  2.5043
   10MOL     H718142   2.050   5.281   7.673 -0.7885 -2.5377 -1.9938
   10MOL     H818143   1.887   5.100   7.677 -0.8039 -0.0564 -2.7531
   10MOL     H918144   1.457   4.945   7.850 -2.9168  2.5538 -0.0881
   10MOL    H1018145   1.137   4.871   7.562  0.0438  0.0427 -0.3598
   10MOL    H1118146   1.298   4.944   7.371 -0.7297  1.1168  0.1783
   10MOL    H1218147   1.369   4.816   8.089 -2.1864  2.6527 -1.2919
   10MOL    H1318148   1.146   5.087   7.847  0.9777  2.5554 -1.3795
   10MOL    H1418149   1.434   4.996   8.237  0.9580 -0.1808  0.8321
   10MOL     O418150   1.155   5.377   7.932  0.3686 -0.4750 -0.1130
   10MOL    H1518151   1.944   5.722   7.239  1.1514 -0.5064  1.1035
   10MOL    H1618152   1.944   5.693   6.994 -0.8774  0.7548 -2.4644
   10MOL    H1718153   2.163   5.355   7.286  1.9777  0.9952 -0.5888
   10MOL    H1818154   2.375   5.795   6.805  1.8331 -0.5744 -1.5072
   10MOL    H1918155   2.156   5.693   6.771 -0.7034  0.9166  0.9698
   10MOL    H2018156   2.543   5.403   6.855 -2.0883 -1.4580 -0.4126
   10MOL    H2118157   2.330   5.312   6.786 -2.6158  0.1304  1.5073
   10MOL    H2218158   2.109   5.316   6.592  2.2935  0.6554  0.7540
   10MOL    H2318159   2.113   5.293   7.058  1.3698  0.3715 -1.2480
   10MOL    F1218160   2.248   5.827   7.752  0.3883  0.4422  0.5702
   10MOL    C4718161   2.202   5.796   7.388 -0.1577  0.2217  0.0317
   10MOL    H2418162   2.306   5.769   7.366 -1.8054 -0.3500 -0.7461
   10MOL    H2518163   2.191   5.894   7.451 -2.5609 -1.3618 -0.0995
   10MOL    H2618164   2.145   5.820   7.307 -1.6870  1.0592  2.3598
   10MOL     N118165   1.689   5.983   7.566  0.6864  0.4294 -0.0862
   10MOL     N218166   1.737   6.196   7.595 -0.1749  0.3114 -0.2412
   10MOL     C118167   1.670   6.087   7.655 -0.3256  0.0651 -0.0769
   10MOL     C218168   1.729   6.331   7.627 -0.3428  0.0575 -0.0840
   10MOL     C318169   1.601   6.385   7.666 -0.1724  0.0104  0.5322
   10MOL     C418170   1.578   6.522   7.700 -0.0831  0.5861 -0.9902
   10MOL     C518171   1.681   6.612   7.690  0.3198 -0.8275  0.4489
   10MOL     C618172   1.809   6.568   7.650 -0.1072 -0.2162  0.0530
   10MOL     C718173   1.839   6.434   7.617 -0.3650 -0.3854  1.1290
   10MOL     N318174   1.658   6.744   7.735 -0.0738 -0.3016  0.4622
   10MOL     C818175   1.613   6.850   7.660  0.2841  0.3652  0.0277
   10MOL     C918176   1.550   6.950   7.751 -0.6990  0.2620  0.7075
   10MOL    C1018177   1.573   6.907   7.876  0.6139  0.0660 -0.4171
   10MOL    C1118178   1.637   6.774   7.867  0.2158 -0.3952  0.0523
   10MOL     O118179   1.660   6.704   7.964 -0.0370  0.4581  0.3026
   10MOL    C1218180   1.451   7.047   7.728  0.2147  0.0991  0.0879
   10MOL    C1318181   1.375   7.089   7.839 -0.8167 -0.0315 -0.5078
   10MOL    C1418182   1.415   7.056   7.972  0.0651 -0.4401 -0.1449
   10MOL    C1518183   1.525   6.974   7.991  0.8066  0.0338  0.1991
   10MOL    C1618184   1.245   7.288   7.742  0.5673  0.0555  0.2828
   10MOL    C1718185   1.361   7.363   7.764 -0.9545  0.3348 -0.6079
   10MOL    C1818186   1.353   7.491   7.711  0.1826  0.5233  0.0245
   10MOL    C1918187   1.139   7.335   7.656  0.6291  0.3902  0.1769
   10MOL    C2018188   1.246   7.541   7.640  0.1780  0.1660  0.5000
   10MOL    C2118189   1.131   7.469   7.619  0.5371 -0.3592 -0.0101
   10MOL    C2218190   1.237   7.149   7.811  0.3174  0.0266  0.8012
   10MOL    C2318191   1.155   7.039   7.728 -0.2351 -0.1365  0.1677
   10MOL     F118192   1.189   7.034   7.594 -0.1703 -0.1243  0.3693
   10MOL     F218193   1.021   7.054   7.731 -0.1688  0.1527  0.3874
   10MOL     F318194   1.184   6.918   7.775  0.4501  0.4086 -0.2176
   10MOL    C2418195   1.156   7.187   7.940 -0.2667 -0.4566  0.4275
   10MOL     F418196   1.039   7.253   7.915  0.4445  1.0841 -0.5224
   10MOL     F518197   1.224   7.266   8.029 -0.0497 -0.4834  0.0672
   10MOL     F618198   1.120   7.075   8.002  0.1132 -0.2009  0.5924
   10MOL     O218199   1.603   6.868   7.540 -0.0840 -0.2656  0.2916
   10MOL    C2518200   1.463   7.591   7.686 -0.5030  0.0027 -0.1184
   10MOL     N418201   1.422   7.686   7.600 -0.0069 -0.6617 -0.4055
   10MOL    C2618202   1.289   7.660   7.570 -0.2432 -0.5484  0.2694
   10MOL     O318203   1.223   7.717   7.483 -0.0347  0.5558 -0.1880
   10MOL    C2718204   1.585   6.079   7.767  0.3107 -0.1833 -0.6606
   10MOL    C2818205   1.448   6.095   7.748  0.2543 -0.0865 -0.4818
   10MOL    C2918206   1.639   6.047   7.891  0.2592  0.1101 -0.3320
   10MOL    C3018207   1.365   6.078   7.856  0.2315  0.1195  0.3699
   10MOL    C3118208   1.556   6.034   7.999 -0.1162 -0.3355 -0.2332
   10MOL    C3218209   1.415   6.050   7.983 -0.5437 -0.4778  0.8998
   10MOL    C3318210   1.323   6.036   8.088 -0.2848  0.0195 -0.4529
   10MOL     N518211   1.322   5.936   8.181 -0.5285 -0.3886  0.0601
   10MOL     N618212   1.263   6.148   8.156  0.5094 -0.9847 -0.6937
   10MOL    C3418213   1.317   6.004   8.307 -0.3768 -0.3742  0.0454
   10MOL    C3518214   1.278   6.123   8.289 -0.1626 -0.3696  0.3591
   10MOL    C3618215   1.152   6.212   8.084 -0.2326  0.2273  0.1002
   10MOL     H118216   1.080   6.137   8.042  1.6189  0.0396  2.6597
   10MOL     H218217   1.208   6.266   8.006 -0.3862  1.3740 -2.2155
   10MOL     H318218   1.099   6.291   8.141 -3.0197  1.4346  2.8472
   10MOL    C3718219   1.315   5.795   8.165 -0.4528 -0.4564 -0.1843
   10MOL    C3818220   1.373   5.741   8.050  0.5744  0.9514  0.1681
   10MOL    C3918221   1.369   5.600   8.035 -0.2913  0.0776  0.4780
   10MOL    C4018222   1.312   5.516   8.130 -0.3769 -0.2466  0.2806
   10MOL    C4118223   1.257   5.577   8.242  1.1408 -0.1546 -0.5748
   10MOL    C4218224   1.259   5.714   8.266 -0.7114  0.2035  0.5727
   10MOL    C4318225   1.252   6.231   8.396  0.3286  0.3719 -1.0691
   10MOL     F718226   1.346   6.326   8.416  0.2101  0.1263  0.1752
   10MOL     F818227   1.246   6.165   8.517 -0.4221  0.6176 -0.0651
   10MOL     F918228   1.133   6.291   8.378 -0.6963  0.1693  0.2207
   10MOL    C4418229   1.787   6.150   7.471  0.0309 -0.0780 -0.3001
   10MOL    C4518230   1.750   6.026   7.446 -0.0755 -0.7624  0.1103
   10MOL    C4618231   1.785   5.939   7.322 -0.1727 -0.1592  0.8927
   10MOL    F1018232   1.771   5.804   7.337  0.1165 -0.0265  0.0937
   10MOL    F1118233   1.702   5.974   7.216 -0.2066  0.3293  0.0962
   10MOL     H418234   1.849   6.213   7.408  0.1355 -2.0968  0.3277
   10MOL     H518235   1.521   6.313   7.665  1.7196 -0.3865  0.7080
   10MOL     H618236   1.479   6.554   7.731  0.9903 -2.7726  0.8283
   10MOL     H718237   1.940   6.403   7.592  0.4315  0.1957 -0.8857
   10MOL     H818238   1.883   6.639   7.649  0.3308 -2.5348 -2.0572
   10MOL     H918239   1.436   7.079   7.624  2.3312  3.4064 -1.1199
   10MOL    H1018240   1.367   7.093   8.059 -1.1772  1.5792  1.3221
   10MOL    H1118241   1.551   6.937   8.087  1.6872  0.4048  0.9935
   10MOL    H1218242   1.052   7.268   7.631 -0.1724 -4.4100  1.5166
   10MOL    H1318243   1.445   7.336   7.827 -0.5860 -0.2540 -1.2881
   10MOL    H1418244   1.044   7.496   7.559  0.0106 -3.3189 -2.1367
   10MOL     O418245   1.577   7.579   7.731 -0.0606  0.1147 -0.4302
   10MOL    H1518246   1.413   6.113   7.649 -1.0922 -0.5228  1.3941
   10MOL    H1618247   1.254   6.074   7.828 -1.7328  2.5885 -0.4948
   10MOL    H1718248   1.741   6.026   7.911 -1.5591 -2.8372  2.3676
   10MOL    H1818249   1.417   5.559   7.946  1.4018 -2.6935  1.6206
   10MOL    H1918250   1.413   5.802   7.970  0.4929  0.4516  0.6186
   10MOL    H2018251   1.206   5.514   8.318 -1.3834 -2.9308 -0.9443
   10MOL    H2118252   1.208   5.749   8.349  0.7907 -0.6089 -1.0308
   10MOL    H2218253   1.347   5.955   8.397 -2.5516  0.8650  0.1378
   10MOL    H2318254   1.606   6.013   8.095  3.4755  1.6477  0.0383
   10MOL    F1218255   1.910   5.956   7.287  0.3278  0.0375 -0.4971
   10MOL    C4718256   1.596   5.865   7.563  0.4419  0.0221  0.1427
   10MOL    H2418257   1.660   5.775   7.563  0.4226  4.0928  0.3617
   10MOL    H2518258   1.528   5.868   7.477 -0.9471  0.5886  2.2407
   10MOL    H2618259   1.543   5.863   7.655 -0.6642  0.4968 -1.8265
   10MOL     N118260   1.971   7.629   7.891  0.2424  0.2051 -0.1984
   10MOL     N218261   2.180   7.594   7.793  0.2241  0.2195 -0.1751
   10MOL     C118262   2.069   7.684   7.800  0.4442  0.3020  0.2285
   10MOL     C218263   2.306   7.609   7.725 -0.2771  0.6193 -0.3028
   10MOL     C318264   2.344   7.704   7.632  0.5679 -0.2309  0.2085
   10MOL     C418265   2.463   7.698   7.556 -0.8507 -0.2451 -0.4489
   10MOL     C518266   2.549   7.591   7.589  0.0059 -0.0603  0.3921
   10MOL     C618267   2.529   7.507   7.704 -0.1915 -0.2718  0.0604
   10MOL     C718268   2.403   7.514   7.763 -0.8113  0.9465  0.0504
   10MOL     N318269   2.660   7.562   7.503 -0.7681  0.2034 -0.5129
   10MOL     C818270   2.788   7.519   7.548 -0.2835  0.1659 -0.0940
   10MOL     C918271   2.863   7.506   7.419 -0.2150 -0.8051 -0.3436
   10MOL    C1018272   2.779   7.532   7.315 -0.6295 -0.3738 -0.1209
   10MOL    C1118273   2.644   7.574   7.365  0.0063 -0.1123  0.7318
   10MOL     O118274   2.544   7.610   7.303 -1.1277 -0.7091  0.5157
   10MOL    C1218275   2.990   7.449   7.403 -0.4683  0.1687 -0.3846
   10MOL    C1318276   3.035   7.417   7.269  0.0878  0.1008  0.7172
   10MOL    C1418277   2.954   7.460   7.157  0.2449 -0.5586 -0.1491
   10MOL    C1518278   2.828   7.518   7.186  0.5840 -0.3006 -0.2434
   10MOL    C1618279   3.060   7.198   7.148  0.5067  0.0888  0.0083
   10MOL    C1718280   2.959   7.123   7.208 -0.5428 -0.4804 -0.2566
   10MOL    C1818281   2.896   7.020   7.134 -1.1465 -0.0571  0.1699
   10MOL    C1918282   3.065   7.201   7.004  0.4087 -0.0270 -0.1012
   10MOL    C2018283   2.912   7.014   6.996 -0.3715 -0.4576  0.6370
   10MOL    C2118284   2.991   7.106   6.928  0.1343 -0.1466  0.3333
   10MOL    C2218285   3.135   7.304   7.234  0.3128  0.0229 -0.3015
   10MOL    C2318286   3.256   7.354   7.144  0.2021  0.2853  0.2717
   10MOL     F118287   3.334   7.252   7.098  0.0395 -0.1241  0.0731
   10MOL     F218288   3.344   7.422   7.221  0.0103  0.2967  0.6753
   10MOL     F318289   3.220   7.434   7.050  0.2530 -0.2271 -0.1022
   10MOL    C2418290   3.194   7.240   7.360  0.3867  0.9743  0.0393
   10MOL     F418291   3.254   7.342   7.420  0.1572 -0.3732 -0.6423
   10MOL     F518292   3.279   7.139   7.338 -0.6318 -0.3432 -0.1091
   10MOL     F618293   3.107   7.181   7.443  0.0904 -0.6046 -0.1269
   10MOL     O218294   2.828   7.504   7.662 -0.1032  0.4026 -0.8719
   10MOL    C2518295   2.807   6.907   7.168 -0.6320  0.0749  0.3033
   10MOL     N418296   2.766   6.846   7.051  0.2189 -0.2058  0.3923
   10MOL    C2618297   2.840   6.895   6.942 -0.3774 -0.2591 -1.1877
   10MOL     O318298   2.818   6.852   6.831  0.1514 -0.4842  0.3876
   10MOL    C2718299   2.029   7.789   7.711  0.2411  0.9634 -0.1510
   10MOL    C2818300   2.002   7.759   7.578 -0.2779 -0.0020 -0.1567
   10MOL    C2918301   2.023   7.922   7.757 -0.1889 -0.4050  0.2638
   10MOL    C3018302   1.968   7.862   7.488  0.2510  0.2479 -0.7984
   10MOL    C3118303   1.983   8.029   7.669  0.3689 -0.7051 -0.0594
   10MOL    C3218304   1.952   7.993   7.535 -0.1412 -0.0758  0.2327
   10MOL    C3318305   1.902   8.093   7.447  0.0187  0.2086 -0.2165
   10MOL     N518306   1.762   8.100   7.428 -0.0329  0.5549  0.3617
   10MOL     N618307   1.969   8.179   7.365 -0.9605  0.8532  0.0079
   10MOL    C3418308   1.747   8.199   7.324 -0.3742  0.1365 -0.8605
   10MOL    C3518309   1.869   8.243   7.292 -0.0407  0.3796  0.2334
   10MOL    C3618310   2.094   8.167   7.305 -0.3914  0.6694  0.4132
   10MOL     H118311   2.156   8.252   7.336 -0.7370 -1.7049  2.2475
   10MOL     H218312   2.086   8.171   7.195  2.0239  2.4027 -1.5419
   10MOL     H318313   2.137   8.064   7.330  3.2904 -1.2696  1.2266
   10MOL    C3718314   1.672   8.001   7.465 -0.9162  0.1771 -0.2838
   10MOL    C3818315   1.603   7.927   7.368 -0.4318  0.0546  0.0420
   10MOL    C3918316   1.519   7.821   7.417 -0.8172 -0.7892 -0.7019
   10MOL    C4018317   1.506   7.794   7.555 -0.0423 -0.5569 -0.7861
   10MOL    C4118318   1.572   7.876   7.642 -0.7570  1.1672  0.3937
   10MOL    C4218319   1.652   7.977   7.597 -0.5435 -0.5604 -0.0649
   10MOL    C4318320   1.902   8.350   7.184  0.3111  0.3733 -0.2133
   10MOL     F718321   1.996   8.436   7.232  0.3747  0.6973  0.0962
   10MOL     F818322   1.793   8.406   7.133 -0.0780 -0.6456  0.1006
   10MOL     F918323   1.956   8.291   7.074  0.1530  0.1386  0.0025
   10MOL    C4418324   2.130   7.479   7.864 -0.1979  0.3935 -0.0689
   10MOL    C4518325   2.019   7.503   7.924 -0.2363  0.1577  0.0136
   10MOL    C4618326   1.945   7.417   8.028 -0.3520 -0.1344  0.1865
   10MOL    F1018327   1.928   7.484   8.146  0.8340 -0.2067  0.1366
   10MOL    F1118328   1.827   7.383   7.980  0.6864 -0.1459 -0.3145
   10MOL     H418329   2.197   7.392   7.881 -0.5143  0.6372  1.2289
   10MOL     H518330   2.273   7.786   7.609  0.8654  1.2186 -0.5884
   10MOL     H618331   2.484   7.777   7.485  2.8736 -0.1707 -0.0786
   10MOL     H718332   2.383   7.452   7.848  0.6703 -0.1171 -0.4335
   10MOL     H818333   2.603   7.440   7.744  2.8297 -0.2589  0.6627
   10MOL     H918334   3.040   7.407   7.487 -0.3141  0.7232 -1.1419
   10MOL    H1018335   2.982   7.433   7.054 -1.0911 -1.9994 -0.7745
   10MOL    H1118336   2.760   7.520   7.103 -1.4476  2.8657  1.2984
   10MOL    H1218337   3.130   7.264   6.947 -0.9296 -2.6593 -1.9257
   10MOL    H1318338   2.941   7.121   7.313 -0.5447  0.5427  1.4777
   10MOL    H1418339   3.003   7.094   6.815  0.9159  2.5582 -0.3772
   10MOL     O418340   2.776   6.872   7.284  0.2368  0.2200  0.1932
   10MOL    H1518341   1.998   7.651   7.539 -1.7738 -3.9832  0.4848
   10MOL    H1618342   1.945   7.838   7.388  0.1187  0.8090  2.1538
   10MOL    H1718343   2.051   7.954   7.851 -0.7924 -0.6319 -0.0184
   10MOL    H1818344   1.465   7.757   7.349  0.1437 -1.0254  1.6752
   10MOL    H1918345   1.612   7.944   7.262 -1.4793 -1.4432  2.7472
   10MOL    H2018346   1.550   7.866   7.749  0.8707 -1.5206  0.5517
   10MOL    H2118347   1.701   8.047   7.670 -1.3840  0.5903  1.3131
   10MOL    H2218348   1.649   8.230   7.295  1.9959 -0.4559  0.4993
   10MOL    H2318349   1.973   8.133   7.694  0.2441 -1.1879 -3.8841
   10MOL    F1218350   2.014   7.304   8.056  0.1503 -0.4404 -0.2128
   10MOL    C4718351   1.903   7.722   7.975 -0.3236 -0.4785  0.1017
   10MOL    H2418352   1.964   7.803   8.013  1.9407 -0.4927  2.3806
   10MOL    H2518353   1.867   7.670   8.068 -0.5556  0.5076 -1.9737
   10MOL    H2618354   1.819   7.764   7.923 -0.4024 -0.8254  0.0592
   10MOL     N118355   2.664   6.916   7.801  0.4131  0.2881  0.1343
   10MOL     N218356   2.443   6.939   7.790 -0.4144  0.0347  0.2463
   10MOL     C118357   2.552   6.872   7.723  0.4051  0.1818  0.8060
   10MOL     C218358   2.341   7.013   7.737 -0.3557  0.0334  1.2234
   10MOL     C318359   2.263   7.089   7.822 -0.1433  0.5093 -0.1478
   10MOL     C418360   2.147   7.155   7.773  0.0034  0.0312  0.2537
   10MOL     C518361   2.114   7.145   7.634  0.2928  0.3106 -0.5274
   10MOL     C618362   2.192   7.067   7.546  0.1525  0.5879  0.3287
   10MOL     C718363   2.303   6.997   7.601 -0.2332  0.3552 -0.1267
   10MOL     N318364   1.998   7.205   7.580 -0.1390  0.6557  0.0366
   10MOL     C818365   1.882   7.136   7.538  1.2146 -0.6482 -0.9074
   10MOL     C918366   1.796   7.241   7.476 -0.8974 -0.2002  0.4262
   10MOL    C1018367   1.860   7.362   7.486  0.1819  0.1105 -0.1428
   10MOL    C1118368   1.993   7.341   7.556  0.5463  0.0270 -0.2868
   10MOL     O118369   2.074   7.429   7.575 -0.1119  0.3461  0.0696
   10MOL    C1218370   1.679   7.225   7.407 -0.1127  0.1284  0.4831
   10MOL    C1318371   1.622   7.334   7.338  0.0463 -0.9784  0.5357
   10MOL    C1418372   1.690   7.458   7.346  0.2095  0.1394  0.0639
   10MOL    C1518373   1.805   7.479   7.425 -0.1984  0.6775 -0.3999
   10MOL    C1618374   1.511   7.391   7.122  0.4789 -0.1886 -0.1556
   10MOL    C1718375   1.638   7.370   7.059  0.1396 -0.4341  0.8967
   10MOL    C1818376   1.656   7.433   6.937 -0.7898  0.1569 -0.3415
   10MOL    C1918377   1.417   7.475   7.058 -0.2154  0.2757  0.1125
   10MOL    C2018378   1.558   7.505   6.870  0.3493 -0.3153  0.4400
   10MOL    C2118379   1.433   7.531   6.931 -0.2110  0.3091 -0.2200
   10MOL    C2218380   1.490   7.324   7.258 -0.7337 -0.0546 -0.0786
   10MOL    C2318381   1.446   7.179   7.229  0.3593 -0.2820 -0.2370
   10MOL     F118382   1.344   7.190   7.144  0.5533  0.7047 -0.3106
   10MOL     F218383   1.394   7.110   7.340  1.0691  0.0767  0.0035
   10MOL     F318384   1.539   7.096   7.170 -0.0196  0.4380  0.2889
   10MOL    C2418385   1.381   7.392   7.352 -0.5365 -0.0680 -0.2009
   10MOL     F418386   1.386   7.341   7.476 -0.3383 -0.1115 -0.1884
   10MOL     F518387   1.258   7.380   7.302 -0.2640  0.1768  0.1960
   10MOL     F618388   1.395   7.529   7.355  0.0397 -0.1378  0.3809
   10MOL     O218389   1.865   7.018   7.520  0.1769 -0.5611  1.2584
   10MOL    C2518390   1.781   7.437   6.850  0.4101 -0.6312 -0.6887
   10MOL     N418391   1.754   7.510   6.737  0.3440  0.0748  0.0731
   10MOL    C2618392   1.624   7.555   6.744 -0.5633  0.2483 -0.4718
   10MOL     O318393   1.581   7.617   6.652 -0.4360 -0.1235  0.2483
   10MOL    C2718394   2.547   6.770   7.631  0.8302 -0.7699  0.0287
   10MOL    C2818395   2.657   6.734   7.554 -0.2521  0.4879 -0.5380
   10MOL    C2918396   2.428   6.689   7.627  0.6714  0.4166 -0.3878
   10MOL    C3018397   2.645   6.613   7.478  0.6227 -0.2462  0.3716
   10MOL    C3118398   2.413   6.571   7.542 -0.6146  0.9444 -0.0403
   10MOL    C3218399   2.528   6.530   7.472 -0.1919 -0.2183  0.4127
   10MOL    C3318400   2.520   6.413   7.399  0.1271  0.1658  0.2932
   10MOL     N518401   2.531   6.401   7.256  0.0864 -0.0749  0.0611
   10MOL     N618402   2.495   6.283   7.448 -0.5751 -0.4936 -0.4380
   10MOL    C3418403   2.503   6.265   7.227  0.3931 -0.0406 -0.3168
   10MOL    C3518404   2.491   6.195   7.336  0.2882 -0.1717 -0.0128
   10MOL    C3618405   2.475   6.243   7.592 -0.0514  0.3591 -0.0694
   10MOL     H118406   2.524   6.146   7.621 -1.3855  1.1984 -1.5382
   10MOL     H218407   2.370   6.241   7.610  0.9540 -3.2568  1.3445
   10MOL     H318408   2.513   6.326   7.653  0.6123  1.3707 -0.3983
   10MOL    C3718409   2.566   6.498   7.163  0.5397 -0.1416  0.7056
   10MOL    C3818410   2.496   6.618   7.155  0.9997 -0.1845  0.1721
   10MOL    C3918411   2.556   6.734   7.105 -0.3244 -0.6214 -0.5123
   10MOL    C4018412   2.686   6.727   7.060  0.1342 -0.5872  0.5702
   10MOL    C4118413   2.751   6.599   7.055  0.2785  0.1214  0.7463
   10MOL    C4218414   2.689   6.485   7.109 -0.3891  0.9469 -0.9887
   10MOL    C4318415   2.462   6.048   7.340 -0.3567 -0.2614  0.2225
   10MOL     F718416   2.426   5.996   7.458  0.3209  0.3376  0.0284
   10MOL     F818417   2.578   5.987   7.298 -0.2809  0.1347  0.5050
   10MOL     F918418   2.361   6.024   7.251  0.4281  0.1569 -0.3286
   10MOL    C4418419   2.493   6.963   7.918 -0.0535 -0.3169  0.0462
   10MOL    C4518420   2.619   6.935   7.930 -0.3348 -0.3039 -0.4594
   10MOL    C4618421   2.703   6.942   8.051  0.1083  0.2971 -0.7646
   10MOL    F1018422   2.637   6.870   8.144 -0.0009  0.1248  0.2385
   10MOL    F1118423   2.825   6.887   8.026  0.3681  0.4811  0.5984
   10MOL     H418424   2.433   6.988   8.009 -0.8848 -2.0631  0.3288
   10MOL     H518425   2.292   7.107   7.928 -0.5104 -0.8326  0.4346
   10MOL     H618426   2.081   7.209   7.841 -1.7693  0.2603 -1.3905
   10MOL     H718427   2.367   6.942   7.536  1.7258 -0.4636  1.6371
   10MOL     H818428   2.161   7.070   7.439  0.1100 -1.5318 -2.3842
   10MOL     H918429   1.630   7.128   7.395 -1.9304 -1.2657 -0.7078
   10MOL    H1018430   1.654   7.544   7.291 -0.0976  3.1693  1.6304
   10MOL    H1118431   1.849   7.575   7.429  0.5903  0.4110  1.9122
   10MOL    H1218432   1.321   7.499   7.111 -2.2101 -0.4279 -1.1972
   10MOL    H1318433   1.717   7.313   7.103  0.8032  1.0815 -3.7703
   10MOL    H1418434   1.358   7.600   6.888 -1.1017  2.1507  0.4713
   10MOL     O418435   1.894   7.406   6.887 -0.0698  0.1560  0.2002
   10MOL    H1518436   2.747   6.796   7.547  0.0200  0.8707  1.7592
   10MOL    H1618437   2.735   6.588   7.421  0.2372 -3.6954 -2.1444
   10MOL    H1718438   2.334   6.716   7.682 -0.8130 -1.5420 -0.2071
   10MOL    H1818439   2.499   6.827   7.116 -0.8853  0.4474  2.8722
   10MOL    H1918440   2.398   6.627   7.207  0.9844  2.0095 -1.4372
   10MOL    H2018441   2.852   6.596   7.012 -1.7039 -0.1813 -2.2600
   10MOL    H2118442   2.735   6.381   7.104 -0.4464 -2.6894 -0.0609
   10MOL    H2218443   2.490   6.228   7.119 -1.3463  1.8589 -1.4400
   10MOL    H2318444   2.316   6.517   7.532 -0.8631 -0.8150 -1.4655
   10MOL    F1218445   2.723   7.069   8.090 -0.6160 -0.2138 -0.5467
   10MOL    C4718446   2.764   6.998   7.731  0.3713  0.2542  0.6020
   10MOL    H2418447   2.829   7.047   7.804 -3.5309  1.0605  0.5918
   10MOL    H2518448   2.708   7.067   7.662 -1.6462 -0.2524 -1.6154
   10MOL    H2618449   2.811   6.922   7.672 -0.8206  0.0466 -0.4567
   10MOL     N118450   2.399   7.280   7.313 -0.6442  0.7334 -0.0979
   10MOL     N218451   2.388   7.123   7.140 -0.2265  0.0053  0.3540
   10MOL     C118452   2.350   7.257   7.180  0.2313  0.1350 -0.1470
   10MOL     C218453   2.443   7.096   7.011 -0.2389 -0.5644 -0.3583
   10MOL     C318454   2.544   7.185   6.967  0.1230  0.0822 -0.3426
   10MOL     C418455   2.605   7.168   6.845  0.0167  1.2002 -0.7913
   10MOL     C518456   2.546   7.076   6.757 -0.0608 -1.1864 -0.2932
   10MOL     C618457   2.441   6.987   6.793 -0.3340 -0.3045  0.3195
   10MOL     C718458   2.386   7.000   6.923 -0.3871  0.2393  0.2084
   10MOL     N318459   2.597   7.071   6.624  0.1291 -0.0569 -0.8004
   10MOL     C818460   2.633   6.953   6.565 -1.1938 -0.1085  1.3799
   10MOL     C918461   2.661   6.986   6.420  0.4542  0.0355  0.2658
   10MOL    C1018462   2.620   7.119   6.399 -0.4041  0.1760 -0.9460
   10MOL    C1118463   2.578   7.175   6.534  0.0092 -0.1360  0.2718
   10MOL     O118464   2.527   7.284   6.550  0.9654  0.3751  0.5193
   10MOL    C1218465   2.704   6.908   6.313  0.3572  0.3064 -0.1400
   10MOL    C1318466   2.704   6.969   6.183 -0.1622  0.1191 -0.2905
   10MOL    C1418467   2.665   7.101   6.170  0.4876 -0.0501  0.5357
   10MOL    C1518468   2.617   7.178   6.276  0.1386  0.7666  0.0191
   10MOL    C1618469   2.649   6.760   6.083  0.0854 -0.1824  0.2296
   10MOL    C1718470   2.695   6.630   6.092  0.0057  0.3765 -0.1689
   10MOL    C1818471   2.610   6.525   6.130 -0.3668  0.2370 -0.2376
   10MOL    C1918472   2.511   6.784   6.099  0.4649  0.3141  0.1779
   10MOL    C2018473   2.480   6.554   6.170 -0.6212  0.6169  0.4235
   10MOL    C2118474   2.431   6.686   6.161 -0.0988  0.4024  0.0748
   10MOL    C2218475   2.735   6.884   6.057 -0.1791 -0.2635  0.1347
   10MOL    C2318476   2.707   6.942   5.916  0.5388 -0.8600 -0.5979
   10MOL     F118477   2.724   6.845   5.818  0.8050 -0.1561  0.4203
   10MOL     F218478   2.790   7.042   5.884  0.0018 -0.4898  0.1812
   10MOL     F318479   2.584   6.984   5.889 -0.0634 -0.0188  0.2245
   10MOL    C2418480   2.893   6.855   6.064 -0.6515 -0.0244  0.2109
   10MOL     F418481   2.961   6.968   6.084  0.2065 -0.1687  0.2968
   10MOL     F518482   2.939   6.794   5.959 -0.4004 -0.3220 -0.5639
   10MOL     F618483   2.933   6.782   6.174  0.1740 -0.1641  0.4842
   10MOL     O218484   2.648   6.844   6.613  0.9419 -0.0420  0.0118
   10MOL    C2518485   2.636   6.384   6.145  0.2058 -0.2233 -0.4458
   10MOL     N418486   2.515   6.337   6.204 -0.4260  0.3311 -0.3131
   10MOL    C2618487   2.411   6.427   6.218  0.0793  0.2876 -0.0669
   10MOL     O318488   2.298   6.404   6.255  0.3124 -0.1374 -0.2549
   10MOL    C2718489   2.327   7.363   7.093 -0.3452 -0.4855 -0.0055
   10MOL    C2818490   2.416   7.468   7.083  0.3908 -0.0926 -0.8806
   10MOL    C2918491   2.225   7.350   7.007 -0.0567  0.5214  0.8620
   10MOL    C3018492   2.407   7.560   6.979  0.1225  0.2852  0.6162
   10MOL    C3118493   2.223   7.441   6.901  0.0982 -0.5438  0.0097
   10MOL    C3218494   2.315   7.540   6.879  0.6626 -0.3624 -0.2524
   10MOL    C3318495   2.337   7.605   6.758  0.2858 -0.2096  0.2541
   10MOL     N518496   2.256   7.683   6.670  0.4802 -0.2266 -0.3155
   10MOL     N618497   2.468   7.608   6.703 -0.1107  0.2501  0.1431
   10MOL    C3418498   2.348   7.748   6.582  0.3341 -0.0173  0.0309
   10MOL    C3518499   2.470   7.705   6.605 -0.3509 -0.0021 -0.0711
   10MOL    C3618500   2.579   7.516   6.740  0.1915 -0.1646 -0.0498
   10MOL     H118501   2.602   7.465   6.646 -1.5893 -1.7084  1.9117
   10MOL     H218502   2.545   7.458   6.827 -1.0356 -1.1291  1.4445
   10MOL     H318503   2.667   7.569   6.769  1.4437  1.2123  1.8560
   10MOL    C3718504   2.120   7.661   6.643  0.1750 -0.3357 -0.0146
   10MOL    C3818505   2.019   7.748   6.688  0.2691  0.0767  0.1842
   10MOL    C3918506   1.888   7.704   6.689 -0.0252  0.6396 -0.3335
   10MOL    C4018507   1.858   7.568   6.662  0.3965  0.6281  0.5502
   10MOL    C4118508   1.954   7.490   6.592 -0.3011  0.5932 -0.3206
   10MOL    C4218509   2.086   7.536   6.589  0.8272  0.3590  0.1079
   10MOL    C4318510   2.601   7.756   6.558  0.3739  0.0936 -0.6275
   10MOL     F718511   2.679   7.654   6.505  0.2285  0.1076  0.1827
   10MOL     F818512   2.668   7.817   6.656 -0.2129 -0.4194  0.3407
   10MOL     F918513   2.579   7.835   6.460 -0.8867  0.3296  0.5803
   10MOL    C4418514   2.458   7.070   7.249  0.6879  0.2211 -0.0942
   10MOL    C4518515   2.477   7.163   7.341 -0.8373 -0.2492  0.6312
   10MOL    C4618516   2.584   7.138   7.451 -0.0762  0.2797 -0.0673
   10MOL    F1018517   2.610   7.008   7.464 -0.2077  0.3742  0.3165
   10MOL    F1118518   2.696   7.208   7.425 -0.0210  0.0072 -0.3996
   10MOL     H418519   2.488   6.968   7.241 -0.2984 -0.9648  0.5014
   10MOL     H518520   2.581   7.263   7.037 -1.5661  0.4527 -1.4279
   10MOL     H618521   2.693   7.232   6.815  0.3657 -0.3905 -0.9148
   10MOL     H718522   2.308   6.933   6.953  0.0679 -0.9009 -2.0053
   10MOL     H818523   2.408   6.905   6.727  0.9725  3.5904  0.9799
   10MOL     H918524   2.718   6.804   6.330 -1.8687  1.5591  0.6468
   10MOL    H1018525   2.656   7.146   6.072  0.0694  3.1890  1.5962
   10MOL    H1118526   2.586   7.280   6.258  1.6974  1.6823 -0.2227
   10MOL    H1218527   2.468   6.881   6.076 -1.0138 -1.5325 -1.5935
   10MOL    H1318528   2.803   6.607   6.068  0.0892 -0.9032  1.4229
   10MOL    H1418529   2.323   6.714   6.191  0.9779  1.5617 -0.2240
   10MOL     O418530   2.740   6.319   6.127  0.0338 -0.7581  0.2788
   10MOL    H1518531   2.505   7.469   7.143  1.1052 -0.3051  0.4471
   10MOL    H1618532   2.482   7.641   6.963 -1.0820  1.2777 -2.9022
   10MOL    H1718533   2.153   7.266   7.014  0.3973 -1.1358 -0.4830
   10MOL    H1818534   1.816   7.762   6.737 -1.0456  1.5104 -2.9281
   10MOL    H1918535   2.052   7.846   6.737  0.5387  2.2523  0.5467
   10MOL    H2018536   1.936   7.381   6.573  0.3208 -2.1684  0.4346
   10MOL    H2118537   2.162   7.476   6.532  1.8910  1.4862  1.3071
   10MOL    H2218538   2.308   7.829   6.515  1.9827 -0.3201 -0.9836
   10MOL    H2318539   2.139   7.428   6.824  0.2339  0.6712 -0.9059
   10MOL    F1218540   2.549   7.187   7.570 -0.1877 -0.1369 -0.1784
   10MOL    C4718541   2.326   7.357   7.414 -0.2914 -1.1269 -0.2605
   10MOL    H2418542   2.383   7.393   7.496 -1.7219 -2.5213 -0.1044
   10MOL    H2518543   2.232   7.312   7.465 -0.1821  0.5623 -1.8640
   10MOL    H2618544   2.303   7.448   7.356  0.9450  0.0641 -1.8119
   10MOL     N118545   2.999   5.533   6.473  0.1614  0.0567 -0.0831
   10MOL     N218546   2.956   5.438   6.266  0.2373  0.0031 -0.6487
   10MOL     C118547   2.903   5.525   6.368  0.2572 -0.2123  0.8853
   10MOL     C218548   2.887   5.338   6.193  0.9061  0.2257 -0.4081
   10MOL     C318549   2.742   5.332   6.209 -0.1431  0.4861 -0.3169
   10MOL     C418550   2.668   5.227   6.165  0.9885 -0.0123  0.2947
   10MOL     C518551   2.737   5.115   6.108  0.0298 -0.0232  0.4054
   10MOL     C618552   2.875   5.125   6.074  0.3241 -0.9691 -0.4775
   10MOL     C718553   2.948   5.238   6.119  0.3970 -0.0225  1.3591
   10MOL     N318554   2.685   4.988   6.106  0.7871  0.1394 -0.2930
   10MOL     C818555   2.673   4.903   5.996 -0.3244  0.3598  0.6550
   10MOL     C918556   2.569   4.803   6.030  0.8355  0.0924  0.2844
   10MOL    C1018557   2.518   4.843   6.151 -0.0484  0.4666 -0.3169
   10MOL    C1118558   2.603   4.939   6.212 -0.1820 -0.5326  0.3259
   10MOL     O118559   2.604   4.976   6.336 -0.3943  0.2245  0.6772
   10MOL    C1218560   2.490   4.727   5.943  0.6321  0.1178 -0.7552
   10MOL    C1318561   2.363   4.679   5.985 -0.1401 -0.0519 -0.6610
   10MOL    C1418562   2.318   4.707   6.115 -0.2973  0.0925 -0.4836
   10MOL    C1518563   2.394   4.793   6.197 -0.0750 -0.1886  0.7151
   10MOL    C1618564   2.178   4.511   5.975 -0.8785  0.4541 -0.0819
   10MOL    C1718565   2.040   4.552   5.985 -0.2025 -0.6478  0.2876
   10MOL    C1818566   1.957   4.489   6.079  0.0810 -0.8831 -0.4054
   10MOL    C1918567   2.228   4.413   6.061  1.1130 -0.4805  0.4382
   10MOL    C2018568   2.015   4.394   6.161 -0.5617 -0.0409 -0.7023
   10MOL    C2118569   2.143   4.353   6.154 -0.2854  0.2635 -0.7513
   10MOL    C2218570   2.270   4.597   5.889  0.1964 -0.3850 -0.2478
   10MOL    C2318571   2.202   4.720   5.817 -0.1824  0.2020  0.1991
   10MOL     F118572   2.286   4.808   5.754  0.1561  0.2726 -0.1326
   10MOL     F218573   2.132   4.806   5.899  0.0081 -0.0342  0.7281
   10MOL     F318574   2.124   4.674   5.718 -0.3491 -0.2925 -0.7338
   10MOL    C2418575   2.355   4.509   5.790  0.0634  0.1615 -0.2769
   10MOL     F418576   2.411   4.579   5.690  0.3004  0.1732  0.0705
   10MOL     F518577   2.280   4.408   5.741  0.2870  0.1316 -0.1503
   10MOL     F618578   2.460   4.446   5.856  0.3686 -0.6616  0.0276
   10MOL     O218579   2.733   4.916   5.891 -0.3192  0.1164  0.6892
   10MOL    C2518580   1.823   4.504   6.131  0.1645  0.1548 -0.1202
   10MOL     N418581   1.813   4.416   6.233 -0.2774  0.6433 -0.4504
   10MOL    C2618582   1.922   4.347   6.265 -0.1898  0.5487  0.6926
   10MOL     O318583   1.936   4.266   6.353 -0.2121  0.2438  0.0947
   10MOL    C2718584   2.781   5.594   6.369 -0.8878 -0.2833  0.5211
   10MOL    C2818585   2.700   5.551   6.470 -0.2396  0.8385 -0.3360
   10MOL    C2918586   2.726   5.666   6.261  0.1530  0.5911 -0.0770
   10MOL    C3018587   2.567   5.579   6.471  1.0579  0.1003 -1.0047
   10MOL    C3118588   2.595   5.698   6.268  0.3358 -0.2743  0.1512
   10MOL    C3218589   2.510   5.662   6.372 -1.2434 -0.5410  0.3234
   10MOL    C3318590   2.378   5.702   6.372  0.3140 -0.6674 -0.3033
   10MOL     N518591   2.319   5.818   6.311 -0.5323  0.2639 -0.1746
   10MOL     N618592   2.265   5.627   6.416  0.1179 -0.2856  0.0113
   10MOL    C3418593   2.184   5.820   6.350 -0.0300  0.1001  0.4862
   10MOL    C3518594   2.146   5.707   6.406 -0.0154 -0.7363  0.2467
   10MOL    C3618595   2.260   5.474   6.432 -0.1560  0.3461 -0.2025
   10MOL     H118596   2.220   5.453   6.533 -0.8499 -1.0230 -1.5279
   10MOL     H218597   2.361   5.428   6.429  3.0773  2.4305 -0.9439
   10MOL     H318598   2.187   5.420   6.361 -2.0713 -0.3076 -2.8912
   10MOL    C3718599   2.390   5.934   6.275 -0.3892  0.0182 -0.5310
   10MOL    C3818600   2.358   6.002   6.154  0.2529 -1.0277  0.3779
   10MOL    C3918601   2.411   6.128   6.122 -0.2119 -0.1614 -0.4072
   10MOL    C4018602   2.489   6.195   6.222 -0.3062  0.0261 -0.5369
   10MOL    C4118603   2.527   6.126   6.338 -0.8767  0.5074  0.3876
   10MOL    C4218604   2.482   5.995   6.367 -0.2207  0.5538 -0.3405
   10MOL    C4318605   2.004   5.676   6.459 -0.3931  0.1303 -0.2249
   10MOL     F718606   1.935   5.578   6.397 -0.2546 -0.4419  0.4865
   10MOL     F818607   1.928   5.785   6.437  0.6087 -0.0401 -0.8080
   10MOL     F918608   2.000   5.654   6.585 -0.1374  0.0537 -0.4602
   10MOL    C4418609   3.079   5.396   6.321 -0.6355 -0.6811 -0.0814
   10MOL    C4518610   3.100   5.442   6.446 -0.6367  0.0438  0.7268
   10MOL    C4618611   3.211   5.396   6.533 -0.4693 -0.3272  0.0884
   10MOL    F1018612   3.265   5.498   6.598 -0.2953  0.0781 -0.7963
   10MOL    F1118613   3.182   5.302   6.626 -0.1160  0.2723  0.2391
   10MOL     H418614   3.139   5.313   6.272  0.7832  0.1463 -2.7142
   10MOL     H518615   2.691   5.409   6.256 -0.7517 -0.8604 -2.2119
   10MOL     H618616   2.562   5.214   6.205 -0.5372 -0.9380  0.7319
   10MOL     H718617   3.055   5.233   6.112  2.2861 -0.4995  0.5114
   10MOL     H818618   2.914   5.041   6.024  0.9292 -1.8721  0.5288
   10MOL     H918619   2.526   4.704   5.851  0.5814  0.4124  0.7195
   10MOL    H1018620   2.223   4.670   6.154 -0.1658  2.6486  0.9193
   10MOL    H1118621   2.362   4.814   6.298  1.1325  1.8065  3.6482
   10MOL    H1218622   2.331   4.380   6.042 -0.5863 -3.1951  2.9322
   10MOL    H1318623   2.003   4.629   5.925  0.2035  0.7286 -0.2767
   10MOL    H1418624   2.175   4.279   6.228  1.1637 -1.1036 -0.6904
   10MOL     O418625   1.748   4.591   6.089 -0.4459  0.4480 -0.1853
   10MOL    H1518626   2.740   5.477   6.543  1.2379 -4.3414  0.5329
   10MOL    H1618627   2.514   5.525   6.550 -1.4505 -0.5637  1.5591
   10MOL    H1718628   2.780   5.685   6.173 -0.3732 -1.9623 -0.0798
   10MOL    H1818629   2.389   6.173   6.031 -0.4185  1.6164  1.4632
   10MOL    H1918630   2.276   5.964   6.085 -1.0351 -0.6833  1.4851
   10MOL    H2018631   2.593   6.179   6.416  0.3316  0.7000  1.6378
   10MOL    H2118632   2.506   5.948   6.466  2.0262  1.7385  0.3712
   10MOL    H2218633   2.129   5.914   6.340  0.0543  0.8071  0.0274
   10MOL    H2318634   2.560   5.756   6.185  0.7482 -0.2927  0.3837
   10MOL    F1218635   3.314   5.346   6.458  0.0145  0.5359  0.2649
   10MOL    C4718636   3.016   5.652   6.552  0.1459  0.4521 -0.2027
   10MOL    H2418637   3.088   5.710   6.500 -1.0343 -0.4585 -2.9152
   10MOL    H2518638   3.074   5.630   6.639 -2.0131  0.2961 -2.5753
   10MOL    H2618639   2.916   5.700   6.571 -0.2431  1.6241  1.4028
   10MOL     N118640   1.693   4.887   6.894  0.0173  0.3471  0.3667
   10MOL     N218641   1.495   4.985   6.964  0.3828 -0.1855  0.2553
   10MOL     C118642   1.548   4.878   6.885 -1.0273  0.2327  0.2694
   10MOL     C218643   1.373   5.049   6.976 -0.5155 -0.5266 -0.2059
   10MOL     C318644   1.254   4.977   6.978  0.6227  0.6356 -0.8388
   10MOL     C418645   1.127   5.041   6.964 -0.1804  0.2476  0.5542
   10MOL     C518646   1.129   5.179   6.973 -0.2463 -0.6861  0.5515
   10MOL     C618647   1.248   5.253   6.963 -0.0128 -0.2282  0.2674
   10MOL     C718648   1.370   5.194   6.964  0.8776  0.6682 -0.3901
   10MOL     N318649   1.012   5.244   6.960 -0.3634 -0.3298  0.1518
   10MOL     C818650   0.983   5.332   6.859 -0.5552  0.2371  0.1047
   10MOL     C918651   0.848   5.383   6.881  0.6001  0.2875 -0.4370
   10MOL    C1018652   0.800   5.322   6.993  1.4101 -0.0691 -0.2513
   10MOL    C1118653   0.907   5.230   7.048  0.4381  0.0424  0.4949
   10MOL     O118654   0.910   5.159   7.147  0.3437  0.0988 -0.6933
   10MOL    C1218655   0.770   5.482   6.818 -0.3367  0.7850  0.7182
   10MOL    C1318656   0.641   5.518   6.870  0.3499  1.6460  0.9085
   10MOL    C1418657   0.606   5.462   6.994  0.2911 -0.0666 -0.9935
   10MOL    C1518658   0.684   5.366   7.059 -0.0433 -0.2564 -0.2118
   10MOL    C1618659   0.400   5.568   6.825  0.2514 -0.3666  0.4132
   10MOL    C1718660   0.303   5.617   6.917  0.5031 -0.2914 -0.6357
   10MOL    C1818661   0.189   5.542   6.948  0.3144  0.0331  0.6249
   10MOL    C1918662   0.377   5.444   6.768 -0.1701  0.3196  0.8307
   10MOL    C2018663   0.171   5.423   6.889  0.4600  0.3172 -0.4696
   10MOL    C2118664   0.255   5.369   6.794 -0.3515  0.3317  0.4410
   10MOL    C2218665   0.549   5.618   6.803 -0.5734  0.6322 -0.1862
   10MOL    C2318666   0.583   5.749   6.877 -0.3937  0.0519 -0.2885
   10MOL     F118667   0.712   5.789   6.848  0.0322 -0.5163  0.6777
   10MOL     F218668   0.575   5.743   7.012 -0.1957 -0.4457  0.6882
   10MOL     F318669   0.500   5.855   6.844 -0.2049  0.3707  0.3383
   10MOL    C2418670   0.564   5.641   6.643  0.0603 -0.6125  0.2973
   10MOL     F418671   0.479   5.739   6.606 -0.5743 -0.2321 -0.0922
   10MOL     F518672   0.547   5.535   6.558  0.2381  0.1210 -0.3962
   10MOL     F618673   0.688   5.694   6.605 -0.3809  0.3871  0.3053
   10MOL     O218674   1.061   5.368   6.769  0.1278 -0.7365  0.2924
   10MOL    C2518675   0.082   5.561   7.052 -0.6640 -0.4797  0.1617
   10MOL     N418676  -0.005   5.456   7.038  0.0691  0.4605  0.2185
   10MOL    C2618677   0.052   5.366   6.947  0.5337 -0.2860 -0.3885
   10MOL     O318678   0.006   5.259   6.921  0.6272 -0.3706 -0.9285
   10MOL    C2718679   1.483   4.762   6.824  0.5206 -0.1658 -0.2427
   10MOL    C2818680   1.360   4.774   6.775 -0.6881 -0.2818  0.4150
   10MOL    C2918681   1.554   4.644   6.810  0.1291 -0.1413  0.1910
   10MOL    C3018682   1.292   4.669   6.714 -0.1415  0.0960 -0.0321
   10MOL    C3118683   1.491   4.534   6.749  1.1105  0.6694  0.3951
   10MOL    C3218684   1.355   4.544   6.699 -0.5031 -0.1821 -0.2675
   10MOL    C3318685   1.292   4.441   6.630  0.6425 -0.1123  1.1454
   10MOL     N518686   1.337   4.361   6.520 -0.1611  0.4125  0.3008
   10MOL     N618687   1.164   4.380   6.662 -0.0709 -0.8121  0.4770
   10MOL    C3418688   1.244   4.270   6.490  0.1648  0.0926 -0.1163
   10MOL    C3518689   1.141   4.279   6.568  0.0714 -1.0622 -0.2632
   10MOL    C3618690   1.046   4.451   6.714  0.0092 -0.3468  0.0365
   10MOL     H118691   0.990   4.475   6.620  1.2725  1.0009 -0.3802
   10MOL     H218692   1.066   4.546   6.773 -0.4072  0.6760  1.3270
   10MOL     H318693   0.988   4.383   6.777 -0.9968 -2.5955  0.2115
   10MOL    C3718694   1.454   4.379   6.444  0.6014 -0.0825  0.2427
   10MOL    C3818695   1.509   4.509   6.422  0.6772  0.4943 -0.1743
   10MOL    C3918696   1.627   4.515   6.351 -0.2507 -0.4746 -0.0306
   10MOL    C4018697   1.699   4.401   6.308  0.3458 -0.5701 -0.8318
   10MOL    C4118698   1.636   4.279   6.318  0.8031 -0.0280  0.4043
   10MOL    C4218699   1.523   4.261   6.396 -0.4792  0.0269  0.4579
   10MOL    C4318700   1.010   4.202   6.558  0.3894  0.4991  0.1204
   10MOL     F718701   0.903   4.285   6.526 -0.2101  0.2025  0.2450
   10MOL     F818702   0.987   4.143   6.679 -0.4103  0.0912  0.0564
   10MOL     F918703   1.018   4.098   6.466  0.3323  0.0793  0.2755
   10MOL    C4418704   1.615   5.039   7.030  0.4922 -0.0666  0.1151
   10MOL    C4518705   1.726   4.981   6.993 -0.8626  0.2192 -0.3098
   10MOL    C4618706   1.865   5.030   7.022 -0.4855  0.0733  0.1125
   10MOL    F1018707   1.895   5.114   6.923 -0.3115 -0.5448  0.2482
   10MOL    F1118708   1.883   5.088   7.150 -0.0655 -0.6480 -0.1630
   10MOL     H418709   1.604   5.130   7.100 -2.7605  1.4773  0.9104
   10MOL     H518710   1.269   4.877   6.976 -0.7006  1.3766 -0.5929
   10MOL     H618711   1.031   4.981   6.960 -3.0077 -0.1253  1.8594
   10MOL     H718712   1.456   5.253   6.948 -1.1737  0.1555  1.6821
   10MOL     H818713   1.235   5.365   6.952 -1.1519  0.2316  1.2894
   10MOL     H918714   0.811   5.537   6.733 -0.1360 -0.9121  0.3353
   10MOL    H1018715   0.515   5.487   7.036  3.2407 -0.4310  0.6440
   10MOL    H1118716   0.641   5.307   7.146 -2.1205 -1.3408  2.6716
   10MOL    H1218717   0.450   5.398   6.700 -0.7210  2.0045  0.3586
   10MOL    H1318718   0.329   5.705   6.979  0.3100  1.3735  0.8065
   10MOL    H1418719   0.227   5.279   6.746  0.8428  2.0361 -1.7663
   10MOL     O418720   0.090   5.646   7.139  0.0311  0.3136  0.6033
   10MOL    H1518721   1.320   4.871   6.776 -0.5982  1.1687  0.2051
   10MOL    H1618722   1.191   4.693   6.678 -1.4002 -0.7670  0.3634
   10MOL    H1718723   1.654   4.624   6.851  2.0342  2.0923  0.0323
   10MOL    H1818724   1.667   4.616   6.329  1.4256  0.6907 -2.2906
   10MOL    H1918725   1.456   4.597   6.454 -0.5160  5.4741  0.6530
   10MOL    H2018726   1.693   4.196   6.277 -1.0777  0.5042  0.5546
   10MOL    H2118727   1.479   4.168   6.417  0.6158  1.5697  1.4605
   10MOL    H2218728   1.256   4.198   6.410  0.7850  0.3327  0.3503
   10MOL    H2318729   1.551   4.445   6.727  0.7238 -2.3817 -0.0458
   10MOL    F1218730   1.957   4.931   7.011 -0.2520 -0.2135 -0.1206
   10MOL    C4718731   1.774   4.886   6.771  0.5004  0.1953  0.1790
   10MOL    H2418732   1.861   4.823   6.778 -0.0222 -0.2139  0.4463
   10MOL    H2518733   1.814   4.990   6.751  0.8179  0.1918  0.8189
   10MOL    H2618734   1.715   4.853   6.683 -0.0903  2.1004  1.0328
   10MOL     N118735  -0.457   5.359   6.625  0.0517 -0.6121 -0.0429
   10MOL     N218736  -0.251   5.272   6.590 -0.9397  0.0460 -0.2411
   10MOL     C118737  -0.357   5.277   6.686 -0.3866 -0.2301  0.2379
   10MOL     C218738  -0.130   5.202   6.595  0.0713  0.4336 -0.6351
   10MOL     C318739  -0.124   5.076   6.652  0.2956 -0.3224  0.9557
   10MOL     C418740  -0.008   5.000   6.650 -0.7187 -0.2853 -0.1438
   10MOL     C518741   0.106   5.052   6.590 -0.3992 -0.9337 -0.0578
   10MOL     C618742   0.098   5.176   6.527 -0.0280 -0.4871 -0.2328
   10MOL     C718743  -0.021   5.250   6.530  0.2095  0.3703  0.4765
   10MOL     N318744   0.218   4.968   6.573 -0.1411 -0.4532  0.4896
   10MOL     C818745   0.227   4.913   6.441 -0.5578  0.0967  0.1264
   10MOL     C918746   0.334   4.808   6.455  0.0749 -0.8567  0.0146
   10MOL    C1018747   0.363   4.789   6.589  0.1304 -0.2027 -0.4928
   10MOL    C1118748   0.297   4.899   6.669 -0.4198  0.3026 -0.0397
   10MOL     O118749   0.294   4.918   6.787  0.7686  0.2741  0.0594
   10MOL    C1218750   0.386   4.728   6.355  1.0386  0.4688  0.0391
   10MOL    C1318751   0.478   4.626   6.391  0.3309 -0.2162  0.4330
   10MOL    C1418752   0.514   4.605   6.527 -0.3657 -0.5116  0.4893
   10MOL    C1518753   0.459   4.689   6.629 -0.4121 -0.4349  0.2993
   10MOL    C1618754   0.419   4.519   6.169 -0.6362 -0.5363 -0.5517
   10MOL    C1718755   0.305   4.454   6.215  0.0019  0.0398  1.0084
   10MOL    C1818756   0.200   4.427   6.130  0.2791  0.5228  0.2906
   10MOL    C1918757   0.429   4.551   6.033  0.6037 -0.1789 -0.1452
   10MOL    C2018758   0.208   4.454   5.995 -1.0782  0.0127 -0.1169
   10MOL    C2118759   0.325   4.510   5.940 -0.5013 -0.1046  0.1785
   10MOL    C2218760   0.533   4.544   6.270 -0.6118 -0.3100 -0.0142
   10MOL    C2318761   0.647   4.627   6.204 -1.0413 -0.9254 -0.4270
   10MOL     F118762   0.611   4.755   6.174  0.7709  0.0803 -0.3931
   10MOL     F218763   0.701   4.564   6.096 -0.4352 -0.1071  0.3046
   10MOL     F318764   0.760   4.637   6.280 -0.3126 -0.5133  0.1103
   10MOL    C2418765   0.586   4.397   6.298 -0.2378  0.1134 -0.8866
   10MOL     F418766   0.611   4.337   6.174 -0.2746 -0.2156 -0.1683
   10MOL     F518767   0.509   4.318   6.362 -0.5649  0.2312 -0.1745
   10MOL     F618768   0.697   4.406   6.375  0.0445 -0.8662  0.4795
   10MOL     O218769   0.180   4.955   6.338 -0.2414  0.7865  0.1641
   10MOL    C2518770   0.072   4.351   6.153 -0.0544  0.0229 -0.0056
   10MOL     N418771   0.004   4.353   6.031  0.2025  0.1486  0.1553
   10MOL    C2618772   0.080   4.419   5.937  0.1435 -0.7309  0.5998
   10MOL     O318773   0.037   4.444   5.826  0.2446  0.2902  0.2284
   10MOL    C2718774  -0.370   5.199   6.799 -0.3471 -0.2084 -0.5195
   10MOL    C2818775  -0.262   5.157   6.877 -0.5398 -0.0068  0.1822
   10MOL    C2918776  -0.499   5.173   6.846  0.1544 -0.6636 -0.2640
   10MOL    C3018777  -0.289   5.099   7.000  0.1811  0.6541 -0.0295
   10MOL    C3118778  -0.525   5.112   6.970 -0.0100  0.4938  0.0658
   10MOL    C3218779  -0.420   5.083   7.052 -0.6654  0.0874  0.4446
   10MOL    C3318780  -0.443   5.066   7.187  0.3791 -0.2918 -0.1072
   10MOL     N518781  -0.404   5.163   7.282  0.5703 -0.4076 -0.2684
   10MOL     N618782  -0.533   4.970   7.246  0.5962 -0.1238  0.1220
   10MOL    C3418783  -0.455   5.115   7.406 -0.5025 -0.0604 -0.0094
   10MOL    C3518784  -0.533   5.005   7.383 -0.4152 -0.5971  0.0773
   10MOL    C3618785  -0.557   4.845   7.192  0.3432  0.5075  0.2038
   10MOL     H118786  -0.663   4.822   7.203 -0.7461  1.2932 -0.6877
   10MOL     H218787  -0.493   4.771   7.245  3.6202 -1.2787  2.6439
   10MOL     H318788  -0.535   4.844   7.084  4.1856 -1.3691 -0.1103
   10MOL    C3718789  -0.311   5.259   7.251 -0.4236  0.4789  0.4415
   10MOL    C3818790  -0.345   5.365   7.165  0.4182  0.2591 -0.1303
   10MOL    C3918791  -0.250   5.432   7.094  1.2352 -0.0800 -0.0019
   10MOL    C4018792  -0.115   5.411   7.127  0.1734  0.4385  1.0605
   10MOL    C4118793  -0.085   5.329   7.239  0.2232 -0.3501 -0.5659
   10MOL    C4218794  -0.182   5.249   7.298  0.6526 -0.4421  0.3228
   10MOL    C4318795  -0.593   4.916   7.481 -0.2950 -0.3129  0.1110
   10MOL     F718796  -0.701   4.851   7.436  0.0766  0.0690  0.1958
   10MOL     F818797  -0.621   4.977   7.590 -0.1031 -0.0260 -0.3713
   10MOL     F918798  -0.500   4.833   7.513 -0.2064  0.4751 -0.5186
   10MOL    C4418799  -0.294   5.333   6.470  0.2327  0.2002 -0.1702
   10MOL    C4518800  -0.418   5.374   6.487  0.3694  0.4473 -0.2743
   10MOL    C4618801  -0.522   5.386   6.380 -0.0191 -0.3330  0.8657
   10MOL    F1018802  -0.647   5.396   6.425  0.0202 -0.0392  0.4112
   10MOL    F1118803  -0.494   5.487   6.298  0.9201 -0.0273 -0.1779
   10MOL     H418804  -0.243   5.314   6.374 -0.8845  1.1912 -4.4791
   10MOL     H518805  -0.217   5.032   6.689 -2.5710  1.4790  0.8539
   10MOL     H618806  -0.004   4.897   6.685 -0.8269 -0.2877 -1.8076
   10MOL     H718807  -0.037   5.340   6.476  0.4905 -0.2437  0.6713
   10MOL     H818808   0.174   5.206   6.463  1.8584 -2.0890  0.3690
   10MOL     H918809   0.370   4.758   6.250  1.2938 -1.4461 -2.8596
   10MOL    H1018810   0.594   4.534   6.555  1.2936  0.2429 -1.0348
   10MOL    H1118811   0.469   4.660   6.733 -1.8975 -0.7454  1.0073
   10MOL    H1218812   0.510   4.602   5.989  1.6285  1.4490 -3.2488
   10MOL    H1318813   0.305   4.429   6.319 -0.2481  0.0684  0.1023
   10MOL    H1418814   0.338   4.536   5.837  0.5538  1.7382  2.3054
   10MOL     O418815   0.028   4.313   6.266 -0.4105 -1.0416 -0.0708
   10MOL    H1518816  -0.169   5.174   6.843 -0.2790 -1.9688 -3.7508
   10MOL    H1618817  -0.206   5.075   7.061 -0.0707  2.3978 -0.6055
   10MOL    H1718818  -0.583   5.204   6.776  0.4720 -1.9178  0.1067
   10MOL    H1818819  -0.289   5.501   7.015 -2.0673  0.8093  0.4594
   10MOL    H1918820  -0.450   5.390   7.134  1.2850 -1.1808 -1.5223
   10MOL    H2018821   0.018   5.318   7.274  1.1468  1.8188 -1.4301
   10MOL    H2118822  -0.144   5.167   7.368  0.8184 -3.6829 -0.3945
   10MOL    H2218823  -0.414   5.158   7.498 -0.2198 -0.6359  1.6065
   10MOL    H2318824  -0.634   5.117   7.009  0.3172 -1.5761  1.6690
   10MOL    F1218825  -0.521   5.271   6.309  0.0454  0.0120  0.4438
   10MOL    C4718826  -0.537   5.461   6.691  0.2578  0.1725  0.0168
   10MOL    H2418827  -0.575   5.418   6.790 -0.3599 -1.6715  1.9487
   10MOL    H2518828  -0.628   5.478   6.633  3.0181  1.3610 -1.0205
   10MOL    H2618829  -0.476   5.549   6.705 -1.1816 -0.3711  0.3424
   10MOL     N118830  -0.288   4.799   6.006 -0.2181 -0.7560 -0.5670
   10MOL     N218831  -0.128   4.807   5.843  1.1633 -0.0047  0.2919
   10MOL     C118832  -0.245   4.734   5.889  0.4200  0.7968 -0.7781
   10MOL     C218833  -0.042   4.772   5.744 -0.0333 -0.3167 -0.7971
   10MOL     C318834  -0.089   4.708   5.626  0.0490 -0.2851  0.9898
   10MOL     C418835   0.010   4.657   5.543  0.0203  0.0677  0.0487
   10MOL     C518836   0.148   4.670   5.567 -0.2338  0.1424  0.1623
   10MOL     C618837   0.193   4.750   5.674  1.0046  0.7891  0.2000
   10MOL     C718838   0.096   4.796   5.768 -0.7460  0.2391 -0.3003
   10MOL     N318839   0.236   4.611   5.477  0.4273  0.1897  0.0912
   10MOL     C818840   0.308   4.502   5.517 -0.4215  1.2761  0.4707
   10MOL     C918841   0.421   4.504   5.419 -0.1279 -0.1861  0.4833
   10MOL    C1018842   0.394   4.589   5.312  0.0317 -0.4477 -0.4966
   10MOL    C1118843   0.271   4.666   5.351  0.1632 -0.8491  0.4143
   10MOL     O118844   0.229   4.771   5.298 -0.2922 -0.1199  0.1260
   10MOL    C1218845   0.537   4.422   5.427 -0.6229 -1.0197  0.5408
   10MOL    C1318846   0.640   4.449   5.333  0.1336 -0.2847  0.0637
   10MOL    C1418847   0.621   4.549   5.230  0.4504  0.7597  0.2486
   10MOL    C1518848   0.500   4.616   5.220  0.5208  0.2215 -0.3480
   10MOL    C1618849   0.807   4.388   5.494 -0.3341 -0.3004  0.9089
   10MOL    C1718850   0.789   4.515   5.558 -0.6858 -0.1997 -0.1757
   10MOL    C1818851   0.857   4.541   5.678  0.5472 -0.1507  0.3402
   10MOL    C1918852   0.888   4.291   5.561  0.3410  0.1617  0.0828
   10MOL    C2018853   0.947   4.452   5.728  0.1101  0.1219  0.3664
   10MOL    C2118854   0.956   4.327   5.673 -0.2617 -0.0864  0.5593
   10MOL    C2218855   0.769   4.370   5.349  0.1810 -0.2344  0.1427
   10MOL    C2318856   0.744   4.218   5.317 -0.7791 -0.0053  0.1594
   10MOL     F118857   0.861   4.167   5.264 -0.2545  0.4136  0.8493
   10MOL     F218858   0.658   4.203   5.220  0.3822  0.0934 -0.1484
   10MOL     F318859   0.705   4.135   5.416  0.8247  0.3189 -0.2701
   10MOL    C2418860   0.899   4.424   5.272  0.5010 -0.3999  0.0064
   10MOL     F418861   0.941   4.549   5.313 -0.1474  0.1914 -0.2947
   10MOL     F518862   0.875   4.412   5.133 -0.3457 -0.2094  0.3176
   10MOL     F618863   1.015   4.347   5.290  0.5474 -0.1456  0.3764
   10MOL     O218864   0.295   4.429   5.612 -0.8533 -0.1828 -0.2176
   10MOL    C2518865   0.876   4.668   5.755 -0.1009  0.6470 -0.2078
   10MOL     N418866   0.981   4.652   5.842 -0.8902 -0.2879  0.0575
   10MOL    C2618867   1.028   4.522   5.834  0.1831  0.0302  0.6218
   10MOL     O318868   1.118   4.477   5.905  0.5923  0.0974  0.3096
   10MOL    C2718869  -0.326   4.630   5.842 -0.2942  0.1102 -0.2428
   10MOL    C2818870  -0.267   4.520   5.789 -0.0027 -0.0458 -0.1169
   10MOL    C2918871  -0.466   4.636   5.842 -0.1862  0.3845  0.1816
   10MOL    C3018872  -0.340   4.412   5.738 -0.2737 -1.0138  0.3795
   10MOL    C3118873  -0.537   4.517   5.804  0.6586  0.2416 -0.5149
   10MOL    C3218874  -0.474   4.398   5.756 -0.7373  0.3923  0.0119
   10MOL    C3318875  -0.538   4.276   5.747 -0.4052 -0.1082 -0.2430
   10MOL     N518876  -0.486   4.175   5.832  0.2507  0.6809  0.0236
   10MOL     N618877  -0.673   4.251   5.717 -0.3071  0.2276  0.3403
   10MOL    C3418878  -0.600   4.105   5.869 -0.5744  0.0281 -0.0796
   10MOL    C3518879  -0.703   4.143   5.802  0.4201 -0.8800  0.5389
   10MOL    C3618880  -0.723   4.254   5.573  0.5728  0.0030 -0.0124
   10MOL     H118881  -0.791   4.167   5.565  2.5458 -0.3228  2.4063
   10MOL     H218882  -0.629   4.248   5.513 -1.2876  0.9233  0.8950
   10MOL     H318883  -0.773   4.344   5.553  2.4528 -2.2801 -2.4335
   10MOL    C3718884  -0.370   4.186   5.917  0.7124 -0.6763 -0.0799
   10MOL    C3818885  -0.253   4.133   5.878 -0.5309 -0.6557  0.7287
   10MOL    C3918886  -0.132   4.176   5.931 -0.5689  0.0006  0.1381
   10MOL    C4018887  -0.124   4.291   6.011 -0.4464 -0.2736  0.5755
   10MOL    C4118888  -0.240   4.346   6.054  0.9062  0.6055 -0.2727
   10MOL    C4218889  -0.360   4.292   6.010  1.1586 -0.3419  0.0223
   10MOL    C4318890  -0.840   4.090   5.837 -0.0113  0.0007 -0.0553
   10MOL     F718891  -0.930   4.074   5.737  0.4939 -0.4723 -0.4013
   10MOL     F818892  -0.912   4.165   5.927 -0.4389 -0.0237 -0.1463
   10MOL     F918893  -0.825   3.964   5.886  0.6406 -0.0455  0.3835
   10MOL    C4418894  -0.124   4.920   5.924  0.4206  0.2801  0.5655
   10MOL    C4518895  -0.213   4.917   6.017 -0.0200  0.1706 -0.0677
   10MOL    C4618896  -0.223   5.027   6.125  0.4420 -0.1242 -0.5600
   10MOL    F1018897  -0.160   5.137   6.077  0.0836 -0.3091 -0.7763
   10MOL    F1118898  -0.354   5.054   6.149 -0.3313  0.2464  0.2083
   10MOL     H418899  -0.038   4.994   5.918  0.7818  2.6386  0.7720
   10MOL     H518900  -0.191   4.676   5.621  1.4790  0.0079 -0.8459
   10MOL     H618901  -0.022   4.606   5.452 -0.6489  0.1965  0.6267
   10MOL     H718902   0.124   4.843   5.852 -0.9077  0.8784  1.9553
   10MOL     H818903   0.296   4.775   5.684 -0.6793 -1.5325 -0.8731
   10MOL     H918904   0.560   4.350   5.506  1.8439  1.2659 -0.9369
   10MOL    H1018905   0.703   4.579   5.168 -0.0002 -1.0479 -0.1366
   10MOL    H1118906   0.490   4.696   5.152 -0.9007  0.6318 -0.9971
   10MOL    H1218907   0.912   4.195   5.512 -1.0419  1.4106 -2.0034
   10MOL    H1318908   0.723   4.597   5.513 -3.2228 -0.3467 -0.1563
   10MOL    H1418909   1.025   4.263   5.716 -0.2377  2.6954  0.8586
   10MOL     O418910   0.805   4.767   5.763 -0.0555 -0.0429 -0.3750
   10MOL    H1518911  -0.159   4.523   5.766 -1.4851  0.1156 -0.1010
   10MOL    H1618912  -0.286   4.327   5.689 -0.2299  0.7463 -3.2791
   10MOL    H1718913  -0.528   4.723   5.864 -0.2289 -0.3466 -0.5934
   10MOL    H1818914  -0.036   4.127   5.887  2.0583  1.8191 -3.3714
   10MOL    H1918915  -0.251   4.067   5.791 -2.4801 -2.0402 -0.4407
   10MOL    H2018916  -0.251   4.429   6.125 -0.1217 -0.0956  0.5379
   10MOL    H2118917  -0.454   4.339   6.024 -0.8560 -2.0516 -1.2273
   10MOL    H2218918  -0.593   4.040   5.953  1.1599 -0.8422  2.6609
   10MOL    H2318919  -0.644   4.525   5.798  0.3784  0.3551 -2.8992
   10MOL    F1218920  -0.158   4.993   6.237  0.1348  0.3541 -0.2775
   10MOL    C4718921  -0.332   4.718   6.122  0.2648  0.1616 -0.0931
   10MOL    H2418922  -0.434   4.748   6.154 -2.9202  1.9225 -1.1602
   10MOL    H2518923  -0.257   4.732   6.205  0.5891 -3.6061  0.9993
   10MOL    H2618924  -0.319   4.618   6.094  1.4990 -1.2557  0.5103
   10MOL     N118925   1.035   4.244   6.139  0.1888  0.2415 -0.2542
   10MOL     N218926   1.247   4.191   6.073  0.8646 -0.2044 -0.4230
   10MOL     C118927   1.165   4.304   6.128 -0.2909  0.4063 -0.1746
   10MOL     C218928   1.384   4.175   6.052  0.5888  0.2474 -0.1426
   10MOL     C318929   1.457   4.276   5.988 -0.6687 -0.0574 -0.6929
   10MOL     C418930   1.593   4.259   5.962 -0.2105 -0.5065 -0.1914
   10MOL     C518931   1.662   4.149   6.022  0.1993 -0.3623 -0.2182
   10MOL     C618932   1.584   4.043   6.075 -0.0922  0.1713  0.3754
   10MOL     C718933   1.448   4.065   6.101 -0.2948  0.7860  0.2221
   10MOL     N318934   1.808   4.134   6.021  0.2646  0.1184 -0.3769
   10MOL     C818935   1.879   4.061   6.120 -0.6527  0.4557 -0.4307
   10MOL     C918936   2.018   4.053   6.069  0.3255  0.7582 -0.7012
   10MOL    C1018937   2.030   4.127   5.951 -0.0217  1.5297 -0.5619
   10MOL    C1118938   1.893   4.184   5.920  0.2223  0.2676  0.1522
   10MOL     O118939   1.865   4.259   5.827 -0.0277 -0.1422  0.1248
   10MOL    C1218940   2.125   4.009   6.141  0.2017 -0.0954 -0.4883
   10MOL    C1318941   2.254   4.019   6.095  0.5335 -0.2706  0.2127
   10MOL    C1418942   2.268   4.062   5.958  0.0302 -0.4004  0.0440
   10MOL    C1518943   2.157   4.128   5.895 -0.1654  0.5902 -0.2454
   10MOL    C1618944   2.319   3.852   6.263  0.4155 -0.0039  0.3840
   10MOL    C1718945   2.274   3.853   6.400 -0.1531  0.1057 -0.4289
   10MOL    C1818946   2.184   3.758   6.443  0.3753 -0.0961 -0.2805
   10MOL    C1918947   2.296   3.737   6.191  0.0904 -0.1663  0.4392
   10MOL    C2018948   2.183   3.640   6.383 -0.0587 -0.0097 -0.5416
   10MOL    C2118949   2.238   3.630   6.256  0.3588  1.2392 -0.5883
   10MOL    C2218950   2.373   3.982   6.190  0.1308  1.2792 -0.4525
   10MOL    C2318951   2.504   3.948   6.119  0.1787  0.0289 -0.3898
   10MOL     F118952   2.573   3.869   6.204  0.1929  0.4317  0.6060
   10MOL     F218953   2.583   4.050   6.085  0.0685  0.4016  0.1993
   10MOL     F318954   2.481   3.880   6.002  0.3083 -0.1798 -0.5810
   10MOL    C2418955   2.402   4.107   6.284 -0.0068 -0.1297  0.5497
   10MOL     F418956   2.445   4.218   6.216  0.3599 -0.3286 -0.2465
   10MOL     F518957   2.506   4.078   6.367 -0.1593 -0.0744  0.2651
   10MOL     F618958   2.300   4.147   6.362 -0.7858  0.1204  0.6463
   10MOL     O218959   1.836   4.018   6.226  0.2449 -0.1637 -0.2511
   10MOL    C2518960   2.096   3.752   6.563  0.1577 -0.1479  0.0111
   10MOL     N418961   2.047   3.623   6.566 -0.1532  0.1783  0.9597
   10MOL    C2618962   2.096   3.546   6.459 -0.0290 -0.0063  0.4364
   10MOL     O318963   2.082   3.426   6.448 -0.3358 -0.1017  0.7083
   10MOL    C2718964   1.193   4.432   6.181 -0.1347 -0.4910  0.3952
   10MOL    C2818965   1.292   4.512   6.124  0.5746 -0.2773 -0.0424
   10MOL    C2918966   1.129   4.480   6.294  0.1871  0.7399 -0.4459
   10MOL    C3018967   1.323   4.637   6.173 -0.6737  0.1948 -0.1721
   10MOL    C3118968   1.172   4.604   6.357 -0.5991  0.2103 -0.0013
   10MOL    C3218969   1.267   4.690   6.292 -0.2292  0.1686  0.1095
   10MOL    C3318970   1.294   4.821   6.325  0.1900  0.2121 -0.7811
   10MOL     N518971   1.231   4.927   6.256 -0.0368 -0.0864 -0.0140
   10MOL     N618972   1.358   4.874   6.439 -0.3678 -0.2671 -0.0295
   10MOL    C3418973   1.254   5.040   6.329  0.2512  0.7392 -0.2501
   10MOL    C3518974   1.315   5.012   6.443 -0.2827  0.5644 -0.1244
   10MOL    C3618975   1.498   4.842   6.474  0.3988  0.6448 -0.3888
   10MOL     H118976   1.533   4.764   6.409 -0.6658 -0.9436  1.4956
   10MOL     H218977   1.486   4.809   6.581 -1.1358 -1.3544 -1.0094
   10MOL     H318978   1.567   4.928   6.457  0.1708  0.0448 -1.7151
   10MOL    C3718979   1.158   4.899   6.138  0.1766 -0.2371 -0.2618
   10MOL    C3818980   1.022   4.864   6.152  0.0568 -0.4618  0.4749
   10MOL    C3918981   0.966   4.785   6.049  0.7626 -0.5205  0.3914
   10MOL    C4018982   1.036   4.756   5.928  0.0635  0.1994 -0.3779
   10MOL    C4118983   1.168   4.809   5.914 -0.0635  0.4320  0.1336
   10MOL    C4218984   1.226   4.896   6.013 -0.2811 -0.3736  0.0153
   10MOL    C4318985   1.345   5.099   6.564 -0.3300  0.1484 -0.0734
   10MOL     F718986   1.278   5.048   6.669  0.5854 -0.3872  0.1384
   10MOL     F818987   1.311   5.230   6.536  0.1063 -0.0062 -0.0045
   10MOL     F918988   1.474   5.093   6.586 -0.6140  0.6495 -0.0773
   10MOL    C4418989   1.161   4.082   6.064  0.5332  0.0418 -0.0099
   10MOL    C4518990   1.045   4.111   6.105  0.5706  0.1613 -0.9439
   10MOL    C4618991   0.925   4.017   6.117 -0.1488 -0.2006 -0.1859
   10MOL    F1018992   0.843   4.036   6.015 -0.2531  0.4418  0.5824
   10MOL    F1118993   0.962   3.885   6.109 -0.0501 -0.2273  0.4365
   10MOL     H418994   1.201   3.983   6.034 -0.9729  1.3324 -2.0370
   10MOL     H518995   1.413   4.364   5.942 -0.8906  0.6661 -2.1690
   10MOL     H618996   1.645   4.336   5.917 -1.2062 -3.4425  1.9051
   10MOL     H718997   1.379   3.992   6.149 -3.2734  4.5273 -0.5198
   10MOL     H818998   1.625   3.944   6.114 -1.2502 -3.5160  0.4708
   10MOL     H918999   2.114   3.976   6.241  0.2845  0.1256 -0.3577
   10MOL    H1019000   2.367   4.060   5.914 -0.8639 -2.6979  0.9989
   10MOL    H1119001   2.180   4.182   5.799  2.0894 -2.2327 -0.8973
   10MOL    H1219002   2.314   3.734   6.085  0.2121  1.5152  0.6630
   10MOL    H1319003   2.295   3.938   6.459  0.4669  0.3863 -0.0364
   10MOL    H1419004   2.207   3.546   6.189  0.9182  0.6749  3.6622
   10MOL     O419005   2.066   3.840   6.644 -0.4712  0.3082 -0.4078
   10MOL    H1519006   1.324   4.490   6.026  0.2052 -0.4175 -1.0407
   10MOL    H1619007   1.386   4.686   6.107  0.9059  1.1366  2.4213
   10MOL    H1719008   1.049   4.424   6.344  1.5380 -1.4041 -2.4310
   10MOL    H1819009   0.870   4.739   6.066  0.4440  1.2931  0.6898
   10MOL    H1919010   0.971   4.865   6.245  0.0251  1.0657 -1.3683
   10MOL    H2019011   1.233   4.780   5.831  3.0257 -0.3192  0.2394
   10MOL    H2119012   1.332   4.915   6.005  0.8269 -0.2055 -0.5211
   10MOL    H2219013   1.222   5.139   6.299  0.2430 -0.3673  2.4593
   10MOL    H2319014   1.128   4.633   6.453 -1.5440 -2.6193  0.9419
   10MOL    F1219015   0.857   4.027   6.233 -0.2155 -0.6560  0.2759
   10MOL    C4719016   0.915   4.317   6.156  0.4946  0.1786  0.5080
   10MOL    H2419017   0.900   4.330   6.269 -1.4217  0.8111  2.8789
   10MOL    H2519018   0.836   4.255   6.124 -0.9313  2.2237 -0.0628
   10MOL    H2619019   0.923   4.413   6.108  0.8119  2.4538  0.4523
   10MOL    H2719020   1.977   3.592   6.634  0.8272  0.1914 -0.2737
   11TF     S9119021   4.565   1.604   2.862  0.0317  0.1406  0.0906
   11TF     O9219022   4.699   1.645   2.906  0.1291 -0.1444 -0.5884
   11TF     O9319023   4.460   1.690   2.902 -0.0232  0.8741  0.0459
   11TF     C9Z19024   4.578   1.618   2.679 -0.0471  0.9404  0.2957
   11TF     F9519025   4.584   1.742   2.644 -0.2700 -0.3331  0.4403
   11TF     F9619026   4.474   1.554   2.618 -0.0321  0.2747  0.1930
   11TF     F9719027   4.691   1.564   2.636  0.2097  0.2500 -0.4135
   11TF     N9819028   4.540   1.456   2.896  0.3682  0.0138  0.3135
   11TF     S9919029   4.495   1.398   3.030  0.4938  0.2902  0.3568
   11TF    O91019030   4.355   1.427   3.066  0.1684 -0.6522  0.0545
   11TF    O91119031   4.603   1.400   3.124  0.1434 -0.1202 -0.0430
   11TF     C9Z19032   4.485   1.219   2.993  0.3207  0.4756 -0.2641
   11TF    F91319033   4.423   1.144   3.086 -0.4224 -0.1450  0.2625
   11TF    F91419034   4.407   1.201   2.886  0.1406 -0.0372  0.7692
   11TF    F91519035   4.600   1.159   2.967  0.2657  0.2206  0.0958
   12TF     S9119036   5.339   6.479   6.181 -0.0186 -0.0939 -0.3808
   12TF     O9219037   5.335   6.370   6.087  0.3557 -0.1336 -0.4473
   12TF     O9319038   5.245   6.585   6.155 -0.7076  0.3820  0.3509
   12TF     C9Z19039   5.271   6.397   6.337  0.1772  0.1864 -0.0544
   12TF     F9519040   5.342   6.300   6.381 -0.0264 -0.1713 -0.2912
   12TF     F9619041   5.150   6.344   6.312 -0.3261  0.2860  0.1632
   12TF     F9719042   5.259   6.476   6.439  0.5205  0.4580  0.2585
   12TF     N9819043   5.478   6.531   6.231  0.2014 -0.2273 -0.3545
   12TF     S9919044   5.605   6.510   6.142 -0.1019  0.1511 -0.2881
   12TF    O91019045   5.578   6.531   6.003  0.3412  0.5879 -0.0938
   12TF    O91119046   5.688   6.401   6.184 -0.1970 -0.0107 -0.2547
   12TF     C9Z19047   5.708   6.659   6.186  0.7485  0.0270  1.0410
   12TF    F91319048   5.655   6.782   6.157  0.0419  0.2544 -0.0084
   12TF    F91419049   5.734   6.669   6.316 -0.2795 -0.4218 -0.0211
   12TF    F91519050   5.828   6.638   6.135 -0.1948 -0.1813 -0.3796
   13TF     S9119051   3.439   6.585   3.511 -0.5791 -0.5376 -0.0176
   13TF     O9219052   3.564   6.550   3.445  0.3840 -0.6610  0.1344
   13TF     O9319053   3.325   6.509   3.462  0.0295 -0.2476 -0.2415
   13TF     C9Z19054   3.469   6.534   3.688 -0.3699 -0.0177  0.3164
   13TF     F9519055   3.361   6.547   3.758 -0.0678  0.5595 -0.3038
   13TF     F9619056   3.564   6.610   3.742 -0.0446 -0.1490 -0.1704
   13TF     F9719057   3.504   6.409   3.692  0.0252  1.1888 -0.1351
   13TF     N9819058   3.426   6.735   3.524  0.1602  0.4720 -0.0823
   13TF     S9919059   3.292   6.808   3.550 -0.1615 -0.3445 -0.0781
   13TF    O91019060   3.239   6.789   3.684  0.0497 -0.0392  0.1018
   13TF    O91119061   3.202   6.790   3.435  1.0585  0.1798 -0.0240
   13TF     C9Z19062   3.341   6.989   3.544  0.5000  0.4427  0.0086
   13TF    F91319063   3.382   7.030   3.661  0.5069  0.0947 -0.2757
   13TF    F91419064   3.439   7.007   3.459  0.2732  0.2516 -0.2348
   13TF    F91519065   3.248   7.068   3.502  0.0826  0.0231 -0.0981
   14TF     S9119066   0.348   0.290   4.077 -0.2521 -0.3221  0.2637
   14TF     O9219067   0.474   0.295   4.141 -0.3616 -0.2876 -0.2900
   14TF     O9319068   0.310   0.176   3.996 -0.1731  0.6783  0.1038
   14TF     C9Z19069   0.242   0.272   4.226 -0.1006  0.3170 -0.0064
   14TF     F9519070   0.113   0.282   4.198  0.4459  0.9349  0.1473
   14TF     F9619071   0.264   0.361   4.322 -0.4802  0.0408  0.2142
   14TF     F9719072   0.258   0.147   4.278 -0.0167 -0.2086 -0.0940
   14TF     N9819073   0.308   0.423   4.011 -1.1448  0.0563 -1.1521
   14TF     S9919074   0.386   0.558   4.008  0.3077 -0.2022  0.0412
   14TF    O91019075   0.501   0.546   3.929  0.6875  0.1236 -0.0316
   14TF    O91119076   0.402   0.634   4.127 -0.4047  0.7196  0.6113
   14TF     C9Z19077   0.273   0.670   3.906 -0.2114  1.0831  0.4994
   14TF    F91319078   0.149   0.685   3.960  0.3960  0.1389 -0.2553
   14TF    F91419079   0.325   0.789   3.893 -0.0314  0.3094 -0.3607
   14TF    F91519080   0.239   0.622   3.788  0.1006  0.0527  0.2458
   15TF     S9119081   4.357   6.039   1.397  0.2794  0.1210 -0.0926
   15TF     O9219082   4.253   5.972   1.323 -0.2087  0.0492 -0.1731
   15TF     O9319083   4.423   5.964   1.506 -0.1521  0.0761  0.5528
   15TF     C9Z19084   4.497   6.076   1.278 -0.1337  0.1440 -0.5230
   15TF     F9519085   4.478   6.187   1.207  0.0886  0.3661  0.1628
   15TF     F9619086   4.514   5.979   1.192  0.1345 -0.7607  0.3797
   15TF     F9719087   4.620   6.089   1.334 -0.0944  1.1347  0.4235
   15TF     N9819088   4.313   6.178   1.438  0.0917  0.1641  0.3428
   15TF     S9919089   4.401   6.259   1.534  0.2460 -0.2895 -0.0164
   15TF    O91019090   4.437   6.383   1.475  0.2529  0.3103  0.6130
   15TF    O91119091   4.516   6.190   1.593  0.2983 -0.0932  0.1233
   15TF     C9Z19092   4.287   6.304   1.667  0.2457  0.0948  0.2331
   15TF    F91319093   4.253   6.194   1.732 -0.1884  0.5052  0.5060
   15TF    F91419094   4.356   6.375   1.755 -0.0234  0.2865 -0.5153
   15TF    F91519095   4.175   6.374   1.651  0.8323  0.5377  0.3801
   16TF     S9119096   6.793   1.523   3.831 -0.4458 -0.1239 -0.3532
   16TF     O9219097   6.689   1.480   3.917 -0.5663  0.2652 -0.2750
   16TF     O9319098   6.857   1.652   3.851  0.1571 -0.1279 -0.5290
   16TF     C9Z19099   6.932   1.394   3.868  0.3020 -0.0576 -0.6506
   16TF     F9519100   6.978   1.392   3.990  0.0477 -0.0046 -0.0740
   16TF     F9619101   7.042   1.414   3.790  0.1968 -0.2046  0.0697
   16TF     F9719102   6.892   1.268   3.852  0.4782  0.2065 -0.2655
   16TF     N9819103   6.753   1.498   3.690  0.2184 -0.0253 -0.5204
   16TF     S9919104   6.693   1.602   3.592  0.0228  0.2879 -0.1139
   16TF    O91019105   6.750   1.586   3.461 -0.2095  0.3025  0.1311
   16TF    O91119106   6.687   1.736   3.636  0.2322 -0.0585 -0.3413
   16TF     C9Z19107   6.524   1.548   3.572 -0.1239  0.0735 -0.3934
   16TF    F91319108   6.455   1.580   3.684 -0.0048 -0.1912  0.0407
   16TF    F91419109   6.467   1.610   3.472 -0.1228 -0.4380 -0.0870
   16TF    F91519110   6.500   1.422   3.542 -0.0060 -0.2153 -0.4369
   17TF     S9119111   1.644   5.613   5.219  0.2366 -0.2664  0.3305
   17TF     O9219112   1.650   5.564   5.355  0.3495  1.3319 -0.0682
   17TF     O9319113   1.518   5.599   5.150  0.4013  0.3790 -0.0417
   17TF     C9Z19114   1.683   5.788   5.232 -0.3582 -0.3046 -0.2105
   17TF     F9519115   1.588   5.859   5.293  0.8939  0.5058 -0.5590
   17TF     F9619116   1.694   5.845   5.112  0.1747 -0.3397 -0.2468
   17TF     F9719117   1.791   5.805   5.300  0.2367 -0.9533  0.9218
   17TF     N9819118   1.760   5.562   5.127  0.4283 -0.3441  0.1864
   17TF     S9919119   1.752   5.414   5.084  0.1667 -0.0816 -0.4388
   17TF    O91019120   1.620   5.361   5.055 -0.4626 -0.4230  0.0458
   17TF    O91119121   1.846   5.333   5.157 -0.5196 -0.0954 -0.1871
   17TF     C9Z19122   1.829   5.412   4.914  0.5024  0.1710 -0.1604
   17TF    F91319123   1.769   5.501   4.836 -0.0918 -0.4084 -0.0818
   17TF    F91419124   1.961   5.442   4.917 -0.2238  0.1084  0.4259
   17TF    F91519125   1.829   5.293   4.845 -0.4818  0.4137  0.1610
   18TF     S9119126   2.218   4.550   4.275 -0.0800 -0.0103  0.0339
   18TF     O9219127   2.247   4.464   4.167 -0.2969  0.3283 -0.3319
   18TF     O9319128   2.193   4.490   4.405  0.0351 -0.2508 -0.0266
   18TF     C9Z19129   2.382   4.645   4.303 -0.4544 -0.2611  0.6886
   18TF     F9519130   2.355   4.738   4.393 -0.8988  0.3743 -0.2560
   18TF     F9619131   2.422   4.713   4.195  0.0000  0.6249 -0.2041
   18TF     F9719132   2.488   4.575   4.340 -0.4767 -0.0356 -0.7219
   18TF     N9819133   2.117   4.667   4.243  0.3172  0.1643 -0.3642
   18TF     S9919134   2.085   4.700   4.096  0.2578  0.1424  0.2666
   18TF    O91019135   1.990   4.609   4.035 -0.0410 -0.1264  0.0034
   18TF    O91119136   2.195   4.744   4.017 -0.5772 -0.4728  0.1151
   18TF     C9Z19137   1.985   4.851   4.113  0.1090 -0.2756 -0.9475
   18TF    F91319138   1.862   4.832   4.170  0.0566  0.2668 -0.0812
   18TF    F91419139   2.041   4.931   4.203 -0.1887  0.0434  0.3529
   18TF    F91519140   1.951   4.929   4.011 -0.2412  0.0550 -0.7748
   19TF     S9119141   2.031   4.388   2.133 -0.1652 -0.2069  0.0203
   19TF     O9219142   1.962   4.453   2.025  0.2742 -0.2606  0.6901
   19TF     O9319143   2.132   4.458   2.208 -0.1559 -0.3224  0.1167
   19TF     C9Z19144   1.881   4.362   2.255  0.6410 -0.0416 -0.3446
   19TF     F9519145   1.847   4.483   2.299  0.0131 -0.4233 -0.2478
   19TF     F9619146   1.906   4.290   2.365 -0.4229 -0.2212  0.6701
   19TF     F9719147   1.778   4.314   2.198  0.2002 -0.2542  0.1799
   19TF     N9819148   2.064   4.233   2.097  0.7038  0.2494  0.0563
   19TF     S9919149   2.212   4.178   2.107 -0.4457 -0.6848 -0.4356
   19TF    O91019150   2.218   4.033   2.120 -0.3238  0.3981  0.2074
   19TF    O91119151   2.293   4.240   2.211  0.2187 -0.4742  0.0600
   19TF     C9Z19152   2.297   4.217   1.943 -0.3391 -0.2261  0.1502
   19TF    F91319153   2.418   4.171   1.927  0.3417  0.4918 -0.0054
   19TF    F91419154   2.216   4.178   1.845 -0.0881  0.2301 -0.1441
   19TF    F91519155   2.312   4.348   1.945 -0.0134 -0.5511  0.1236
   20TF     S9119156   2.355   4.501   6.518  0.0098 -0.1789  0.2381
   20TF     O9219157   2.392   4.373   6.579 -0.0969  0.3075  0.0463
   20TF     O9319158   2.326   4.482   6.377  0.5217 -0.2278 -0.5770
   20TF     C9Z19159   2.190   4.544   6.595  0.4903 -0.3059 -0.5376
   20TF     F9519160   2.195   4.543   6.729  0.2089  0.4735 -0.6271
   20TF     F9619161   2.101   4.450   6.564  0.0857 -0.0322  0.2352
   20TF     F9719162   2.143   4.659   6.552 -0.3204  0.0837 -0.1353
   20TF     N9819163   2.449   4.616   6.545  0.2958  0.5235  0.2398
   20TF     S9919164   2.599   4.609   6.518  0.2267 -0.0108  0.5770
   20TF    O91019165   2.641   4.716   6.424  0.3884  0.3436 -0.2106
   20TF    O91119166   2.653   4.477   6.487 -0.3500  0.3955  0.2697
   20TF     C9Z19167   2.667   4.661   6.690  0.9963  0.2899  0.0747
   20TF    F91319168   2.800   4.658   6.697 -0.5516 -0.1406  0.0718
   20TF    F91419169   2.633   4.786   6.723  0.0315  0.1500  0.4450
   20TF    F91519170   2.610   4.590   6.783 -0.1354 -0.6920  0.2985
   21TF     S9119171   0.092   2.504   4.886  0.1900 -0.1290  0.1899
   21TF     O9219172   0.157   2.591   4.794 -0.0488 -0.2964  0.3308
   21TF     O9319173  -0.010   2.414   4.832  0.0471 -1.0865 -0.6117
   21TF     C9Z19174   0.229   2.395   4.945 -0.2269 -0.6014 -0.1223
   21TF     F9519175   0.277   2.322   4.845  0.9182  0.1635  0.1019
   21TF     F9619176   0.198   2.308   5.043 -0.7687 -0.3513 -0.3757
   21TF     F9719177   0.332   2.461   4.996  0.0065 -0.3231  0.2220
   21TF     N9819178   0.063   2.581   5.015 -0.0517  0.7751 -0.2605
   21TF     S9919179  -0.073   2.563   5.097 -0.1801  0.3989  0.1438
   21TF    O91019180  -0.134   2.433   5.095 -0.0292  0.4679 -0.4377
   21TF    O91119181  -0.162   2.676   5.087  0.6319 -0.1157 -0.5913
   21TF     C9Z19182  -0.003   2.572   5.269 -0.0584  0.4960 -0.0107
   21TF    F91319183   0.079   2.672   5.267  0.2026  0.0326 -0.1687
   21TF    F91419184  -0.090   2.612   5.358  0.3522 -0.0041 -0.4116
   21TF    F91519185   0.060   2.471   5.328 -0.3396 -0.0499 -0.2554
   22TF     S9119186   6.868   4.595   5.088 -0.2283  0.2681  0.2817
   22TF     O9219187   6.835   4.594   4.943 -0.2984 -0.9556 -0.2851
   22TF     O9319188   6.907   4.721   5.145 -0.1571 -0.5968 -0.1926
   22TF     C9Z19189   6.709   4.555   5.162 -0.2872  0.1698  0.5695
   22TF     F9519190   6.668   4.438   5.108 -0.3921 -0.2328  0.1177
   22TF     F9619191   6.618   4.647   5.137  0.6757 -0.0004 -0.0275
   22TF     F9719192   6.728   4.543   5.293 -0.3240 -0.2935 -0.2375
   22TF     N9819193   6.966   4.484   5.137  0.2715  0.3695  0.1553
   22TF     S9919194   7.052   4.411   5.026  0.0018 -0.3313 -0.1596
   22TF    O91019195   7.138   4.505   4.961 -0.2880  0.2575  0.0196
   22TF    O91119196   6.975   4.327   4.948 -0.3609 -0.1287 -0.3348
   22TF     C9Z19197   7.160   4.295   5.122  0.3069 -0.5375  0.2283
   22TF    F91319198   7.101   4.180   5.156 -0.4162 -0.0660 -0.5976
   22TF    F91419199   7.267   4.254   5.050  0.1918 -0.4706  0.0874
   22TF    F91519200   7.201   4.349   5.226 -0.9121  0.2111 -0.0265
   23TF     S9119201   3.419   5.647   4.705  0.7066 -0.0147 -0.0711
   23TF     O9219202   3.361   5.725   4.599 -0.5939 -0.3989 -0.4538
   23TF     O9319203   3.421   5.713   4.834  0.1146 -0.3224  0.0658
   23TF     C9Z19204   3.301   5.503   4.729  0.2822  0.2946 -0.1157
   23TF     F9519205   3.347   5.423   4.821  0.4979  0.2333 -0.5216
   23TF     F9619206   3.287   5.433   4.624 -0.1320  0.2770  0.3051
   23TF     F9719207   3.180   5.539   4.763  0.9198 -0.0412  0.5929
   23TF     N9819208   3.545   5.582   4.667  0.2223 -0.4948  0.4903
   23TF     S9919209   3.675   5.658   4.651 -0.3208  0.3224  0.1450
   23TF    O91019210   3.659   5.800   4.661  0.0715 -0.5738  0.5569
   23TF    O91119211   3.749   5.607   4.540  0.1160 -0.1078  0.2602
   23TF     C9Z19212   3.762   5.598   4.806  0.7415 -0.0863  0.4583
   23TF    F91319213   3.697   5.642   4.914 -0.1139 -0.4593  0.1900
   23TF    F91419214   3.762   5.467   4.819 -0.0788 -0.1084  0.1517
   23TF    F91519215   3.880   5.627   4.841  0.4244 -0.0033  0.2190
   24TF     S9119216   0.347   5.643   0.797  0.0309 -0.3473 -0.2944
   24TF     O9219217   0.205   5.662   0.794  0.8044  0.1597 -0.7177
   24TF     O9319218   0.422   5.753   0.859 -0.0686  0.6284 -0.1598
   24TF     C9Z19219   0.370   5.506   0.917  0.5037 -0.4233 -0.6731
   24TF     F9519220   0.491   5.447   0.918 -0.6901  0.1851 -0.0369
   24TF     F9619221   0.289   5.408   0.890  0.0744  0.2981  0.1289
   24TF     F9719222   0.342   5.542   1.039  0.3426  0.3805 -0.0953
   24TF     N9819223   0.409   5.592   0.659  0.0644  0.1033  0.1792
   24TF     S9919224   0.312   5.573   0.549  0.1839  0.0554  0.2144
   24TF    O91019225   0.269   5.706   0.513 -0.2462 -0.4661 -0.5312
   24TF    O91119226   0.215   5.467   0.577  0.2535  0.5349  0.5022
   24TF     C9Z19227   0.420   5.513   0.410  0.5076  0.4540  0.2141
   24TF    F91319228   0.481   5.404   0.431 -0.2203 -0.0751 -0.4769
   24TF    F91419229   0.350   5.491   0.305 -0.7658  0.4688  0.3508
   24TF    F91519230   0.516   5.588   0.361 -0.1796 -0.2681  0.0462
   25TF     S9119231   2.584   5.213   4.317  0.2385  0.1341  0.0002
   25TF     O9219232   2.673   5.190   4.426  0.2414  0.3519 -0.0188
   25TF     O9319233   2.628   5.310   4.218 -0.0338  0.0906 -0.5136
   25TF     C9Z19234   2.578   5.053   4.230 -0.5285 -0.3393  0.0855
   25TF     F9519235   2.534   4.957   4.305  0.1982  0.2474  0.2209
   25TF     F9619236   2.701   5.018   4.198 -0.4917  0.0913 -0.4775
   25TF     F9719237   2.498   5.060   4.123 -0.3367 -0.3682 -0.3396
   25TF     N9819238   2.433   5.223   4.356 -0.7934 -0.0121  0.1329
   25TF     S9919239   2.341   5.343   4.324  0.1496 -0.1242 -0.0632
   25TF    O91019240   2.395   5.427   4.215  0.0423 -0.2002  0.2871
   25TF    O91119241   2.286   5.405   4.442  0.3353  0.5589  0.1962
   25TF     C9Z19242   2.189   5.271   4.251  0.4029  0.4261 -0.1946
   25TF    F91319243   2.216   5.193   4.150  0.2531  0.0298  0.1572
   25TF    F91419244   2.124   5.201   4.348  0.0719 -0.0119 -0.1341
   25TF    F91519245   2.092   5.354   4.212 -0.4878 -0.2649 -0.3499
   26TF     S9119246   3.674   0.709   1.009 -0.1910  0.2434 -0.0511
   26TF     O9219247   3.541   0.711   1.064  0.0364  0.6915  0.2212
   26TF     O9319248   3.787   0.746   1.092  0.3467 -0.2321  0.7869
   26TF     C9Z19249   3.698   0.543   0.959  0.1175  0.1987 -0.0621
   26TF     F9519250   3.829   0.517   0.930  0.1698  0.1936  0.6632
   26TF     F9619251   3.621   0.509   0.854  0.1889 -0.4636  0.2683
   26TF     F9719252   3.674   0.445   1.054  0.1776  0.1657 -0.2575
   26TF     N9819253   3.681   0.788   0.880 -0.2791 -0.0645 -0.6335
   26TF     S9919254   3.631   0.935   0.873  0.0020  0.0322 -0.2069
   26TF    O91019255   3.735   1.011   0.817  0.1743  0.0738  0.8494
   26TF    O91119256   3.581   0.988   0.997  0.3621  0.1574  0.0665
   26TF     C9Z19257   3.487   0.926   0.756  0.1785 -0.3997  0.0324
   26TF    F91319258   3.518   0.976   0.641 -0.3274  0.6263 -0.7747
   26TF    F91419259   3.449   0.801   0.746  0.4860 -0.2425 -0.0640
   26TF    F91519260   3.387   0.991   0.801 -0.3913 -0.0790 -0.3250
   27TF     S9119261   6.184   5.765   6.481 -0.0915 -0.0279  0.0465
   27TF     O9219262   6.132   5.630   6.453  0.6778  0.3495 -0.1164
   27TF     O9319263   6.283   5.821   6.391 -0.4480  0.4798  0.2867
   27TF     C9Z19264   6.043   5.885   6.463  0.6567  0.1892 -0.2716
   27TF     F9519265   6.066   5.989   6.531  0.0023 -0.4559 -0.0887
   27TF     F9619266   5.925   5.834   6.496 -0.5571  0.0377 -0.5238
   27TF     F9719267   6.028   5.918   6.337 -0.7806 -0.4905  0.1580
   27TF     N9819268   6.220   5.777   6.627 -0.5136 -0.6810  0.1961
   27TF     S9919269   6.337   5.860   6.675  0.3467  0.2377 -0.0654
   27TF    O91019270   6.347   5.999   6.627 -0.1548 -0.0257 -0.0465
   27TF    O91119271   6.461   5.789   6.682  0.3002 -0.2576 -0.4626
   27TF     C9Z19272   6.293   5.890   6.856 -0.1520 -0.0456  0.1345
   27TF    F91319273   6.385   5.948   6.931  0.6053 -0.2504  0.3844
   27TF    F91419274   6.176   5.956   6.863 -0.0959  0.3288  0.4895
   27TF    F91519275   6.267   5.782   6.923  0.2825  0.0404 -0.3258
   28TF     S9119276   2.425   4.566   1.174  0.0608 -0.7468  0.2455
   28TF     O9219277   2.517   4.457   1.221  0.0230 -0.3322  0.8398
   28TF     O9319278   2.476   4.665   1.081 -0.9381 -0.0807 -0.2666
   28TF     C9Z19279   2.306   4.469   1.068  0.6850 -0.3017 -0.6041
   28TF     F9519280   2.259   4.363   1.132 -0.4881 -0.4848 -0.2096
   28TF     F9619281   2.365   4.430   0.959  0.6288 -0.1289  0.1523
   28TF     F9719282   2.202   4.546   1.031 -0.4443  0.0394 -0.0478
   28TF     N9819283   2.339   4.631   1.281  0.1694 -0.6157  0.3487
   28TF     S9919284   2.386   4.749   1.373  0.3269 -0.0799  0.2554
   28TF    O91019285   2.318   4.868   1.332  0.7341  0.2852  0.6051
   28TF    O91119286   2.529   4.750   1.389 -0.4506  0.1294  0.4304
   28TF     C9Z19287   2.331   4.716   1.544 -0.6644  0.3060  0.3359
   28TF    F91319288   2.390   4.603   1.584  0.1119 -0.0658  0.1011
   28TF    F91419289   2.369   4.808   1.629  0.2756 -0.3124  0.6325
   28TF    F91519290   2.201   4.702   1.568 -0.1297 -0.4035 -0.1454
   29TF     S9119291   5.266   1.695   0.475 -0.4601 -0.0242  0.4079
   29TF     O9219292   5.181   1.583   0.508 -0.1619 -0.8427 -0.0716
   29TF     O9319293   5.404   1.684   0.484 -0.9840  0.3951 -0.3129
   29TF     C9Z19294   5.235   1.704   0.284 -0.0778  0.0241  0.2644
   29TF     F9519295   5.297   1.602   0.216  0.0780  0.6350  0.1589
   29TF     F9619296   5.286   1.814   0.240  0.5789 -0.1683 -0.2811
   29TF     F9719297   5.102   1.699   0.241  0.3453 -0.3036 -0.1896
   29TF     N9819298   5.213   1.826   0.529  0.5012 -0.1165 -0.2068
   29TF     S9919299   5.123   1.834   0.652 -0.2342  0.3121  0.3360
   29TF    O91019300   5.179   1.797   0.771 -0.1966  0.2772  0.2068
   29TF    O91119301   4.988   1.786   0.624 -0.4057 -0.4600 -0.2201
   29TF     C9Z19302   5.105   2.019   0.674 -0.5050 -0.4027 -0.2776
   29TF    F91319303   4.985   2.042   0.724 -0.0053  0.4724 -0.3439
   29TF    F91419304   5.192   2.085   0.750  0.4078 -0.1907  0.7334
   29TF    F91519305   5.106   2.071   0.547 -0.1737  0.2897 -0.4067
   30TF     S9119306   1.215   4.115   0.206 -0.1568 -0.2988 -0.3341
   30TF     O9219307   1.250   4.149   0.341 -0.0992 -0.6019  0.3771
   30TF     O9319308   1.170   3.982   0.182  0.2402 -0.6146  0.0423
   30TF     C9Z19309   1.064   4.219   0.176 -0.3673  1.0956  0.0007
   30TF     F9519310   0.956   4.153   0.233  0.2649  0.5429  0.1299
   30TF     F9619311   1.047   4.235   0.045  0.3609 -0.1470 -0.3028
   30TF     F9719312   1.072   4.337   0.229  0.1312 -0.4581  0.1025
   30TF     N9819313   1.326   4.154   0.099 -0.9719  0.0490  0.4890
   30TF     S9919314   1.467   4.212   0.132  0.2065  0.3369  0.4111
   30TF    O91019315   1.539   4.131   0.225  0.0532  0.4608 -0.1628
   30TF    O91119316   1.476   4.357   0.147  0.5190 -0.0445  0.2454
   30TF     C9Z19317   1.567   4.181  -0.019  0.1645 -0.7522  0.7520
   30TF    F91319318   1.599   4.054  -0.032  0.1112  0.1821 -0.3237
   30TF    F91419319   1.508   4.208  -0.132 -0.5901 -0.1901 -0.0216
   30TF    F91519320   1.681   4.245  -0.016 -0.5376 -0.5902 -0.0214
   31TF     S9119321   6.512   4.201   6.456 -0.2491  0.1996  0.0041
   31TF     O9219322   6.556   4.199   6.597 -0.0665 -0.1700  0.4556
   31TF     O9319323   6.510   4.319   6.373 -0.4046 -0.7321 -0.1256
   31TF     C9Z19324   6.654   4.105   6.382 -0.4434  0.1533  0.0113
   31TF     F9519325   6.647   3.977   6.429  0.4387 -0.2079  0.3185
   31TF     F9619326   6.772   4.152   6.428 -0.2076  0.3228  0.4364
   31TF     F9719327   6.660   4.096   6.250  0.3150  0.1913 -0.2402
   31TF     N9819328   6.389   4.110   6.429  0.1171 -0.2102 -0.0251
   31TF     S9919329   6.290   4.132   6.311  0.0552  0.4006 -0.0806
   31TF    O91019330   6.332   4.207   6.197  0.3327 -0.3654 -0.0677
   31TF    O91119331   6.152   4.148   6.353  0.0452  0.3523 -0.2022
   31TF     C9Z19332   6.303   3.958   6.246  0.5302  0.6045  0.0934
   31TF    F91319333   6.311   3.873   6.341 -0.2127  0.1374 -0.1316
   31TF    F91419334   6.197   3.925   6.170 -0.0529  0.0918 -0.1746
   31TF    F91519335   6.417   3.930   6.172  0.5297 -0.1420  0.3332
   32TF     S9119336   3.129   5.072   5.667 -0.3084 -0.1394 -0.1380
   32TF     O9219337   3.099   5.020   5.799 -0.7847 -0.5016 -0.3069
   32TF     O9319338   3.269   5.079   5.635  0.3464  0.0716  0.6237
   32TF     C9Z19339   3.068   4.940   5.541 -1.2712  0.7831 -0.5518
   32TF     F9519340   2.933   4.942   5.538  0.0972 -0.3740  0.0280
   32TF     F9619341   3.091   4.812   5.584  0.2910  0.4362  0.0094
   32TF     F9719342   3.106   4.954   5.414 -0.3742  0.0018  0.1189
   32TF     N9819343   3.042   5.193   5.628 -0.8708  0.2291 -0.3129
   32TF     S9919344   2.986   5.267   5.752 -0.3442  0.1092 -0.1912
   32TF    O91019345   3.073   5.272   5.870 -0.0216  0.5465  0.8789
   32TF    O91119346   2.840   5.245   5.766  0.5971 -0.6246  0.3131
   32TF     C9Z19347   3.004   5.434   5.690 -0.2192  1.0119  0.7668
   32TF    F91319348   3.125   5.452   5.635  0.6701  0.1577  0.5615
   32TF    F91419349   2.915   5.465   5.595 -0.1378 -0.0408  0.6641
   32TF    F91519350   2.997   5.522   5.792 -0.6276  0.5276  0.2916
   33TF     S9119351   4.756   5.131   1.533  0.4630 -0.3118  0.0691
   33TF     O9219352   4.852   5.049   1.600  1.0972 -0.4045 -0.8023
   33TF     O9319353   4.711   5.101   1.401  0.0174 -0.3620  0.3243
   33TF     C9Z19354   4.605   5.119   1.644  0.6799  0.0499  0.0329
   33TF     F9519355   4.608   5.199   1.750 -0.1430 -0.0886 -0.0918
   33TF     F9619356   4.563   4.998   1.675 -0.3597 -0.1466 -0.3759
   33TF     F9719357   4.492   5.174   1.588 -0.1366 -0.1498  0.1048
   33TF     N9819358   4.797   5.282   1.551 -0.6531  0.6334  0.5151
   33TF     S9919359   4.926   5.337   1.480 -0.5129 -0.1278  0.1555
   33TF    O91019360   4.904   5.464   1.410 -0.1394 -0.3233  0.4864
   33TF    O91119361   5.007   5.232   1.414  0.3101  0.1499 -0.2466
   33TF     C9Z19362   5.036   5.385   1.619 -0.1667  0.0897 -0.6121
   33TF    F91319363   5.065   5.294   1.712  0.1496 -0.1686 -0.1791
   33TF    F91419364   5.158   5.423   1.584 -0.4417 -0.0178  0.2819
   33TF    F91519365   4.992   5.484   1.695  0.2693 -0.1478 -0.2615
   34TF     S9119366   0.887   1.715   1.959  0.4525  0.0820  0.0312
   34TF     O9219367   0.970   1.723   2.077  0.5944  0.1831  0.2008
   34TF     O9319368   0.890   1.815   1.855 -0.5198  0.1675  0.0545
   34TF     C9Z19369   0.930   1.557   1.884 -0.1704  0.1883  0.1373
   34TF     F9519370   1.054   1.576   1.844 -0.2626 -0.4803  0.0360
   34TF     F9619371   0.855   1.533   1.781 -0.5396  0.3096 -0.0147
   34TF     F9719372   0.928   1.448   1.959  0.3970 -0.0483 -0.3041
   34TF     N9819373   0.738   1.689   1.998 -1.1515  0.3615 -0.9243
   34TF     S9919374   0.652   1.806   2.052 -0.2794 -0.0143 -0.4607
   34TF    O91019375   0.726   1.928   2.071  0.1561  0.1295  0.2294
   34TF    O91119376   0.572   1.766   2.163  0.2149  0.5195 -0.4576
   34TF     C9Z19377   0.544   1.842   1.911  1.2813  0.5982  0.3356
   34TF    F91319378   0.592   1.832   1.783  0.2097 -0.2487  0.0261
   34TF    F91419379   0.429   1.773   1.910 -0.1653 -0.2460  0.0044
   34TF    F91519380   0.505   1.967   1.910  0.1383  0.0818  0.2936
   35TF     S9119381   4.212   1.588   4.308  0.2285  0.3492  0.4177
   35TF     O9219382   4.184   1.488   4.406 -0.1507  0.5099 -0.3341
   35TF     O9319383   4.144   1.709   4.316 -0.2365 -0.2720 -0.1166
   35TF     C9Z19384   4.386   1.637   4.351  0.3808 -0.1162 -0.1055
   35TF     F9519385   4.457   1.675   4.248 -0.0797 -0.4754 -0.4812
   35TF     F9619386   4.454   1.541   4.413 -0.3158 -0.2538 -0.1116
   35TF     F9719387   4.395   1.736   4.440 -0.3554 -0.8520  0.3971
   35TF     N9819388   4.219   1.541   4.164 -0.3831  0.5730 -0.7474
   35TF     S9919389   4.247   1.394   4.131 -0.3049 -0.3130 -0.5055
   35TF    O91019390   4.133   1.315   4.142  0.3083  0.1095  0.3619
   35TF    O91119391   4.374   1.345   4.184  0.6059  0.6091  0.2122
   35TF     C9Z19392   4.277   1.413   3.953  0.2660 -0.1696 -0.3547
   35TF    F91319393   4.163   1.429   3.879  0.2977 -0.4547 -0.1445
   35TF    F91419394   4.333   1.533   3.926 -0.2989  0.3342  0.3630
   35TF    F91519395   4.340   1.322   3.887 -0.0958 -0.2553  0.1538
   36TF     S9119396   4.201   0.406   0.373 -0.0593  0.1557  0.3605
   36TF     O9219397   4.166   0.273   0.413 -0.8523  0.5413 -0.7918
   36TF     O9319398   4.187   0.499   0.482  0.0386  0.2958  0.0835
   36TF     C9Z19399   4.382   0.400   0.327  0.4868 -0.2222  0.0533
   36TF     F9519400   4.436   0.516   0.335  0.2189  0.1683 -0.4454
   36TF     F9619401   4.402   0.360   0.202 -0.3602 -0.1384 -0.0583
   36TF     F9719402   4.454   0.316   0.401 -0.2504  0.7589  0.0452
   36TF     N9819403   4.140   0.458   0.243 -0.5494 -0.0056 -0.1057
   36TF     S9919404   4.053   0.366   0.150  0.3223 -0.2240  0.4856
   36TF    O91019405   3.912   0.399   0.175 -0.4826 -0.5176  0.0032
   36TF    O91119406   4.103   0.228   0.143  0.5809  0.5383  0.5959
   36TF     C9Z19407   4.095   0.436  -0.021 -0.1736  0.0160 -0.4562
   36TF    F91319408   4.028   0.381  -0.122 -0.2293 -0.0737  0.0047
   36TF    F91419409   4.082   0.566  -0.036  0.3518  0.2452  0.2126
   36TF    F91519410   4.220   0.412  -0.037 -1.0007  0.0404  0.9194
   37TF     S9119411   4.042   1.506   1.905 -0.0956 -0.3071 -0.2215
   37TF     O9219412   3.956   1.620   1.909 -0.1627  0.4510  1.0148
   37TF     O9319413   4.014   1.408   1.799  0.4292 -0.3231 -0.3812
   37TF     C9Z19414   4.221   1.565   1.871  0.1129  0.1631 -0.8442
   37TF     F9519415   4.218   1.645   1.762  0.3359 -0.2395 -0.6425
   37TF     F9619416   4.308   1.472   1.849 -0.0366 -0.1081 -0.0584
   37TF     F9719417   4.261   1.643   1.972 -0.0208  0.1818  0.0525
   37TF     N9819418   4.052   1.442   2.046  0.1600 -0.3025  0.7776
   37TF     S9919419   3.931   1.432   2.133 -0.6089 -0.2479  0.2038
   37TF    O91019420   3.921   1.313   2.220  0.4553 -0.5887  0.8804
   37TF    O91119421   3.803   1.471   2.067 -0.0198 -0.1258  0.2871
   37TF     C9Z19422   3.956   1.576   2.252 -0.0335 -0.3340  0.3246
   37TF    F91319423   4.085   1.608   2.268 -0.5779  0.1112  0.0172
   37TF    F91419424   3.896   1.687   2.204 -0.3340  0.2273 -0.1374
   37TF    F91519425   3.904   1.570   2.370  0.1730 -0.1153  0.1729
   38TF     S9119426   3.356   0.186   1.609 -0.3981 -0.1533 -0.1510
   38TF     O9219427   3.241   0.164   1.525  0.0195 -0.1320  0.1154
   38TF     O9319428   3.485   0.198   1.551 -0.1953  0.6658  0.0072
   38TF     C9Z19429   3.327   0.356   1.688 -0.0910 -0.1305 -0.0228
   38TF     F9519430   3.323   0.445   1.590 -0.2181 -0.5556  0.0695
   38TF     F9619431   3.436   0.390   1.770  0.1041  0.5944  0.6468
   38TF     F9719432   3.214   0.359   1.758 -0.4112 -0.2440 -0.1551
   38TF     N9819433   3.365   0.098   1.737 -0.6581  0.1407  0.5935
   38TF     S9919434   3.402  -0.052   1.720  0.0545 -0.4889  0.3357
   38TF    O91019435   3.542  -0.074   1.755  0.3659 -0.5206 -0.6682
   38TF    O91119436   3.370  -0.095   1.587 -0.3574 -1.1597  0.4690
   38TF     C9Z19437   3.290  -0.141   1.840  0.9892  0.3053  0.1232
   38TF    F91319438   3.267  -0.275   1.814 -0.2297  0.3390  0.3096
   38TF    F91419439   3.313  -0.129   1.974 -0.5503  0.4315  0.0229
   38TF    F91519440   3.175  -0.081   1.817 -0.0127  0.2925  0.2588
   39TF     S9119441   4.537   3.382   0.347 -0.1436 -0.0985 -0.2335
   39TF     O9219442   4.539   3.520   0.395  0.1371  0.4193 -0.3530
   39TF     O9319443   4.665   3.307   0.341 -0.0562 -0.0557  0.5909
   39TF     C9Z19444   4.433   3.292   0.471  0.0761 -0.3409  0.3489
   39TF     F9519445   4.464   3.330   0.599 -0.2344 -0.1433 -0.1167
   39TF     F9619446   4.432   3.158   0.467 -0.0286  0.3535 -0.6238
   39TF     F9719447   4.304   3.327   0.458  0.0319 -0.1474 -0.3110
   39TF     N9819448   4.450   3.374   0.218 -0.5624 -0.9317 -0.3180
   39TF     S9919449   4.505   3.296   0.098 -0.0120 -0.1371  0.0778
   39TF    O91019450   4.489   3.155   0.123 -0.0119  0.0393  0.3946
   39TF    O91119451   4.630   3.355   0.048  0.3201  0.5822  0.1473
   39TF     C9Z19452   4.384   3.327  -0.046  0.2274  0.6190 -0.3096
   39TF    F91319453   4.412   3.243  -0.146  0.1223 -0.5320  0.0536
   39TF    F91419454   4.257   3.300  -0.023  0.1620 -0.9687 -0.3394
   39TF    F91519455   4.384   3.450  -0.092 -0.2748  0.5749  0.6680
   40TF     S9119456   3.588   2.392   4.304  0.1550 -0.2218 -0.3906
   40TF     O9219457   3.509   2.416   4.418  0.4592  0.7837 -0.7580
   40TF     O9319458   3.725   2.359   4.322 -0.2279  0.3626  0.3537
   40TF     C9Z19459   3.510   2.236   4.235  0.5896  0.2828 -0.3879
   40TF     F9519460   3.525   2.132   4.319  0.0524 -0.1684  0.1597
   40TF     F9619461   3.567   2.191   4.126 -0.1329 -0.8100  0.0006
   40TF     F9719462   3.379   2.245   4.206  0.0971  0.0751  0.5654
   40TF     N9819463   3.566   2.495   4.196 -0.5858 -0.0283 -0.3609
   40TF     S9919464   3.547   2.652   4.225  0.1036  0.0920 -0.2482
   40TF    O91019465   3.671   2.720   4.239  0.3653  0.2719  0.4204
   40TF    O91119466   3.445   2.672   4.320  0.2559  0.5131  0.6151
   40TF     C9Z19467   3.476   2.727   4.070 -0.3730  0.3376 -0.5495
   40TF    F91319468   3.380   2.657   4.018  0.1570  0.1216 -0.3562
   40TF    F91419469   3.425   2.849   4.077  0.0615 -0.1551 -0.3671
   40TF    F91519470   3.568   2.739   3.977 -0.2020  0.1483 -0.1479
   41TF     S9119471   3.515   6.760   2.960  0.0460  0.2918  0.2254
   41TF     O9219472   3.456   6.639   2.915  0.2875  0.2230  0.0040
   41TF     O9319473   3.468   6.883   2.901  0.3319  0.3615  0.1311
   41TF     C9Z19474   3.443   6.775   3.133 -0.1886  0.1018 -0.5321
   41TF     F9519475   3.312   6.804   3.134 -0.6496 -0.1598  0.3291
   41TF     F9619476   3.498   6.859   3.217 -0.1977  0.2641  0.3046
   41TF     F9719477   3.452   6.656   3.195 -0.1323  0.2222  0.4290
   41TF     N9819478   3.669   6.763   2.971 -0.3655  0.2422 -0.1566
   41TF     S9919479   3.763   6.787   2.853 -0.2521 -0.3762 -0.2995
   41TF    O91019480   3.738   6.914   2.784 -0.7796 -0.1465 -0.1710
   41TF    O91119481   3.783   6.672   2.769  0.0092  0.0179  0.3470
   41TF     C9Z19482   3.930   6.813   2.946  0.1018  0.6401 -1.3317
   41TF    F91319483   3.918   6.925   3.017  0.1610 -0.4607 -0.1181
   41TF    F91419484   3.957   6.716   3.036  0.3097 -0.5911 -0.2279
   41TF    F91519485   4.033   6.829   2.868  0.0689 -0.2435 -0.6054
   42TF     S9119486   0.472   1.683   5.115  0.4251 -0.0085  0.3792
   42TF     O9219487   0.381   1.586   5.167  0.4578 -0.0069  0.2865
   42TF     O9319488   0.613   1.642   5.122 -0.5243 -0.1574  0.2261
   42TF     C9Z19489   0.436   1.686   4.929 -0.5082  0.1623  0.1302
   42TF     F9519490   0.515   1.774   4.870 -0.1300  0.3365 -0.1717
   42TF     F9619491   0.314   1.716   4.896  0.3372 -0.2639  0.4591
   42TF     F9719492   0.462   1.573   4.875 -0.0488  0.3936 -0.0748
   42TF     N9819493   0.451   1.836   5.154  0.3030 -0.1390  0.8045
   42TF     S9919494   0.318   1.875   5.231  0.2832  0.1839  0.0567
   42TF    O91019495   0.337   1.849   5.370 -0.3629  0.5630 -0.4248
   42TF    O91119496   0.198   1.832   5.169 -0.3230 -0.5696 -0.4921
   42TF     C9Z19497   0.312   2.060   5.212 -0.4798  0.0079  0.2758
   42TF    F91319498   0.398   2.122   5.289  0.7763 -0.0134  0.5552
   42TF    F91419499   0.342   2.099   5.090 -0.5320  0.5221  0.2558
   42TF    F91519500   0.193   2.117   5.235 -0.0775 -0.0090  0.0761
   43TF     S9119501   1.120   3.613   2.812 -0.1974 -0.0147  0.2178
   43TF     O9219502   0.979   3.618   2.779 -0.3703 -0.5137  0.6489
   43TF     O9319503   1.200   3.729   2.779 -0.3243  0.1609  0.2225
   43TF     C9Z19504   1.112   3.602   2.999 -0.0041  0.3730  0.5183
   43TF     F9519505   1.101   3.469   3.030  0.4025 -0.3451  0.3650
   43TF     F9619506   1.006   3.664   3.054  0.4884 -0.0078 -0.0750
   43TF     F9719507   1.225   3.640   3.056  0.0481  0.1001 -0.6636
   43TF     N9819508   1.187   3.482   2.769 -0.4356 -0.5336  0.5147
   43TF     S9919509   1.214   3.446   2.624  0.6123 -0.0045  0.0922
   43TF    O91019510   1.347   3.398   2.606 -0.3067  0.4655  0.4828
   43TF    O91119511   1.163   3.543   2.530  0.2546 -0.4092 -0.1431
   43TF     C9Z19512   1.101   3.294   2.601 -0.6825  0.4256  0.1053
   43TF    F91319513   1.137   3.237   2.490  0.2850  0.0640  0.3185
   43TF    F91419514   1.113   3.208   2.695  0.4020 -0.0077 -0.1498
   43TF    F91519515   0.968   3.320   2.591 -0.1926 -0.5366  0.1756
   44TF     S9119516   4.005   6.845   1.607  0.3773  0.0045 -0.0940
   44TF     O9219517   3.882   6.915   1.593 -0.1865  0.0048  0.8211
   44TF     O9319518   4.119   6.929   1.611 -0.2702  0.1577 -0.1375
   44TF     C9Z19519   3.995   6.773   1.779 -0.3270 -0.1950 -0.1304
   44TF     F9519520   3.883   6.709   1.805  0.3379 -0.0224  0.0696
   44TF     F9619521   4.009   6.850   1.886  0.3147 -0.0346 -0.5432
   44TF     F9719522   4.088   6.685   1.795  0.5111  0.1428 -0.6104
   44TF     N9819523   4.013   6.717   1.520  0.7243  0.3520  0.0262
   44TF     S9919524   4.123   6.696   1.407 -0.2201 -0.3111 -0.2681
   44TF    O91019525   4.257   6.684   1.469 -0.4135  0.1439  0.1907
   44TF    O91119526   4.107   6.793   1.302 -0.1094 -0.8451 -0.1559
   44TF     C9Z19527   4.079   6.527   1.332  0.2711 -0.6670  0.2426
   44TF    F91319528   4.055   6.434   1.416  0.4168 -0.0474 -0.2838
   44TF    F91419529   3.978   6.539   1.252 -0.5467 -0.0521  0.2995
   44TF    F91519530   4.191   6.494   1.267  0.4996 -0.0152  0.1238
   45TF     S9119531   2.886   2.573   0.151 -0.1141 -0.1801 -0.0391
   45TF     O9219532   2.984   2.534   0.054 -0.2267  0.2217 -0.0651
   45TF     O9319533   2.889   2.506   0.285  0.3475  0.5719  0.7296
   45TF     C9Z19534   2.919   2.753   0.159  0.2166  0.2281 -0.5540
   45TF     F9519535   3.051   2.783   0.146 -0.3945 -0.6543 -0.4029
   45TF     F9619536   2.884   2.800   0.277  0.4825 -0.0880  0.3844
   45TF     F9719537   2.854   2.818   0.068 -0.0720  0.0612 -0.4684
   45TF     N9819538   2.744   2.570   0.096 -0.1084 -0.2921 -0.0168
   45TF     S9919539   2.681   2.441   0.040  0.3329 -0.1218  0.3903
   45TF    O91019540   2.746   2.321   0.081 -0.1036  0.0928 -0.2009
   45TF    O91119541   2.632   2.458  -0.092 -0.6965  0.1029  0.1804
   45TF     C9Z19542   2.531   2.447   0.146 -0.1996  0.4945 -0.0083
   45TF    F91319543   2.555   2.410   0.269 -0.6971 -0.1366 -0.0505
   45TF    F91419544   2.473   2.564   0.142 -0.3477  0.0071  0.5841
   45TF    F91519545   2.439   2.362   0.105 -0.5197 -0.3211  0.3838
   46TF     S9119546   5.975   5.068   5.506 -0.2911  0.1155  0.2741
   46TF     O9219547   5.875   5.134   5.421  0.1704  0.5157 -0.4231
   46TF     O9319548   6.084   5.005   5.437 -0.0786 -0.7335 -0.0864
   46TF     C9Z19549   6.063   5.208   5.595  0.0144  0.3521 -1.1247
   46TF     F9519550   6.113   5.292   5.508 -0.0017 -0.0897 -0.1544
   46TF     F9619551   6.154   5.168   5.683 -0.1893 -0.1171 -0.0247
   46TF     F9719552   5.974   5.282   5.667 -0.5705 -0.2479 -0.0133
   46TF     N9819553   5.919   4.981   5.618 -0.5327  0.1382  0.1655
   46TF     S9919554   5.764   4.981   5.649  0.4307 -0.3741 -0.0678
   46TF    O91019555   5.691   4.897   5.561  0.1237  0.1971 -0.1444
   46TF    O91119556   5.711   5.116   5.663  0.3451  0.0197 -0.2274
   46TF     C9Z19557   5.754   4.897   5.811 -0.0970  0.1361  0.2877
   46TF    F91319558   5.794   4.765   5.803  0.6053 -0.3019 -0.1235
   46TF    F91419559   5.832   4.946   5.901 -0.0251  0.9027 -0.4513
   46TF    F91519560   5.631   4.890   5.875  0.8206 -0.7208 -0.3163
   47TF     S9119561   5.451   5.701   0.853 -0.1399 -0.3734  0.0169
   47TF     O9219562   5.537   5.719   0.965  0.2861 -0.2024 -0.3782
   47TF     O9319563   5.329   5.627   0.877 -0.1876  0.4955 -0.4400
   47TF     C9Z19564   5.397   5.869   0.803  0.1881  0.1226  0.3568
   47TF     F9519565   5.502   5.944   0.762  0.0292  0.4417 -0.6117
   47TF     F9619566   5.331   5.933   0.894  0.0917 -0.1097 -0.6337
   47TF     F9719567   5.309   5.865   0.700 -0.4228 -0.2420 -0.4351
   47TF     N9819568   5.522   5.640   0.726  0.0776 -0.4817  0.1771
   47TF     S9919569   5.516   5.485   0.700  0.0564  0.2396  0.2895
   47TF    O91019570   5.458   5.405   0.807  0.3896 -0.5961  0.8202
   47TF    O91119571   5.638   5.436   0.645  0.0184  0.3654  0.2012
   47TF     C9Z19572   5.398   5.473   0.563 -0.1672  0.2943 -0.4593
   47TF    F91319573   5.446   5.525   0.449  0.0361  0.3031 -0.1095
   47TF    F91419574   5.350   5.349   0.542 -0.0458  0.0360  0.2238
   47TF    F91519575   5.293   5.543   0.611 -0.5858  0.1056 -0.1579
   48TF     S9119576   4.398   6.790   6.243  0.2696 -0.3510  0.0441
   48TF     O9219577   4.540   6.792   6.268  0.0757 -0.0816  0.2195
   48TF     O9319578   4.352   6.741   6.113 -0.4177 -0.1125  0.4258
   48TF     C9Z19579   4.315   6.689   6.376 -0.5193  0.1552  1.0885
   48TF     F9519580   4.316   6.746   6.501  0.0897 -0.2729  0.0242
   48TF     F9619581   4.383   6.569   6.384  0.1196 -0.0982  0.2228
   48TF     F9719582   4.190   6.650   6.349  0.0560 -0.6750  0.3404
   48TF     N9819583   4.337   6.928   6.270 -0.3140  0.1962 -0.3789
   48TF     S9919584   4.413   7.070   6.259  0.0078 -0.2213  0.2390
   48TF    O91019585   4.545   7.058   6.212 -0.5048  0.3507 -0.0460
   48TF    O91119586   4.388   7.161   6.372  0.3303 -0.2037  0.3073
   48TF     C9Z19587   4.319   7.152   6.126 -0.2386 -0.1830  0.1526
   48TF    F91319588   4.195   7.177   6.165 -0.1454 -0.1451 -0.0844
   48TF    F91419589   4.379   7.264   6.110 -0.1115 -0.2023  0.1557
   48TF    F91519590   4.298   7.092   6.010  0.2095  0.5866  0.0701
   49TF     S9119591   3.101   3.381   3.847 -0.3191  0.5280 -0.0018
   49TF     O9219592   3.131   3.247   3.888 -0.2888  0.3440  0.3352
   49TF     O9319593   3.105   3.480   3.954  0.0986 -0.3342 -0.1501
   49TF     C9Z19594   3.236   3.421   3.731 -0.1821 -0.5711 -0.2678
   49TF     F9519595   3.236   3.329   3.631  0.5590  0.1628 -0.1018
   49TF     F9619596   3.363   3.420   3.771  0.5007  0.3605  0.2278
   49TF     F9719597   3.225   3.542   3.673  0.2259  0.7659 -0.0278
   49TF     N9819598   2.976   3.393   3.759 -0.4086 -0.8964 -0.4458
   49TF     S9919599   2.837   3.426   3.815 -0.3319  0.0732  0.6683
   49TF    O91019600   2.773   3.534   3.741 -0.4502  1.1361  0.5726
   49TF    O91119601   2.813   3.418   3.960  0.1094  0.0817 -0.6834
   49TF     C9Z19602   2.742   3.287   3.739  0.5150  0.0849  0.8209
   49TF    F91319603   2.637   3.260   3.808  0.7074  0.6974 -0.2068
   49TF    F91419604   2.706   3.316   3.612  0.5284  0.2061 -0.4612
   49TF    F91519605   2.802   3.170   3.724 -0.3128  0.2614  0.2906
   50TF     S9119606   3.597   5.304   6.636 -0.2774  0.3412 -0.2571
   50TF     O9219607   3.542   5.226   6.745  0.6052  0.1277 -0.3898
   50TF     O9319608   3.535   5.428   6.599 -0.2391 -0.2457 -0.2051
   50TF     C9Z19609   3.763   5.349   6.701 -0.0735 -0.3002  0.5838
   50TF     F9519610   3.754   5.438   6.804  0.2618  0.1256  0.2601
   50TF     F9619611   3.844   5.393   6.615  0.1242  0.1930 -0.4387
   50TF     F9719612   3.820   5.245   6.760 -0.3088 -0.0100 -0.0894
   50TF     N9819613   3.643   5.234   6.511 -0.7946 -0.0068 -0.7048
   50TF     S9919614   3.610   5.080   6.487 -0.5396 -0.0826 -0.5074
   50TF    O91019615   3.468   5.056   6.517 -0.2685  0.0940 -0.2088
   50TF    O91119616   3.707   4.990   6.545  0.2489 -0.5892 -0.1313
   50TF     C9Z19617   3.630   5.042   6.306 -0.2700  0.1175  0.3410
   50TF    F91319618   3.560   4.932   6.279  0.1674  0.0237 -0.1902
   50TF    F91419619   3.572   5.133   6.227 -0.1359 -0.1364 -0.1235
   50TF    F91519620   3.749   5.023   6.247  0.2991 -0.0560  0.7047
   51TF     S9119621   0.474   2.374   4.262 -0.4833  0.5480  0.6961
   51TF     O9219622   0.489   2.337   4.399 -0.4685 -0.3912 -0.2549
   51TF     O9319623   0.591   2.415   4.192 -0.2386  0.3685  0.2644
   51TF     C9Z19624   0.421   2.217   4.172 -0.4764 -0.0251  0.1539
   51TF     F9519625   0.305   2.173   4.209  0.1399 -0.6495  0.1173
   51TF     F9619626   0.513   2.123   4.180  0.3735  0.1408 -0.6112
   51TF     F9719627   0.395   2.236   4.042 -0.1200  0.5133 -0.0040
   51TF     N9819628   0.359   2.476   4.247 -0.1767  0.2427  0.8133
   51TF     S9919629   0.384   2.621   4.294 -0.1616 -0.0675 -0.2381
   51TF    O91019630   0.415   2.705   4.182 -0.0709 -0.2562  0.1163
   51TF    O91119631   0.459   2.634   4.411 -0.9532  0.2895 -0.1533
   51TF     C9Z19632   0.214   2.682   4.339 -0.3010  0.2416 -0.1534
   51TF    F91319633   0.141   2.708   4.236  0.2275 -0.1946  0.0152
   51TF    F91419634   0.146   2.596   4.416 -0.0238 -0.4522  0.0222
   51TF    F91519635   0.232   2.800   4.397  0.6535  0.1234 -0.9308
   52TF     S9119636   1.454   5.729   3.586  0.3794 -0.0291 -0.3370
   52TF     O9219637   1.536   5.802   3.492  0.1576  0.2593  0.1656
   52TF     O9319638   1.505   5.711   3.722  0.0456  0.4255  0.4231
   52TF     C9Z19639   1.304   5.842   3.615  0.3563  0.1428  0.1517
   52TF     F9519640   1.336   5.952   3.679  0.1293 -0.3128  0.2630
   52TF     F9619641   1.208   5.787   3.689  0.1337 -0.2175  0.1380
   52TF     F9719642   1.244   5.871   3.505  0.0663 -0.3000 -0.4736
   52TF     N9819643   1.376   5.600   3.537 -0.2997 -0.1140  0.0568
   52TF     S9919644   1.350   5.571   3.395  0.4884 -0.3773 -0.3709
   52TF    O91019645   1.447   5.477   3.348  0.1512 -0.2863  0.1646
   52TF    O91119646   1.328   5.691   3.315  0.4417 -0.4002 -0.3483
   52TF     C9Z19647   1.184   5.492   3.395 -0.5169 -0.7191  0.8604
   52TF    F91319648   1.183   5.377   3.462  0.0768  0.2202 -0.5069
   52TF    F91419649   1.086   5.566   3.441 -0.2923  0.6974 -0.4081
   52TF    F91519650   1.155   5.446   3.271 -0.6989 -0.3580 -0.3224
   53TF     S9119651   2.933   6.870   5.501 -0.1865  0.0254  0.0251
   53TF     O9219652   2.957   6.855   5.639 -0.3514 -0.2231 -0.1376
   53TF     O9319653   2.819   6.956   5.469  0.7172  0.1531 -0.1983
   53TF     C9Z19654   3.072   6.965   5.443 -0.7759 -0.1448 -0.0751
   53TF     F9519655   3.058   6.995   5.318  0.2735 -0.4603 -0.3113
   53TF     F9619656   3.189   6.906   5.451  0.3094 -0.2504  0.3275
   53TF     F9719657   3.078   7.085   5.505 -0.0339 -0.2821  0.0224
   53TF     N9819658   2.944   6.738   5.421  0.2433  0.2130 -0.5834
   53TF     S9919659   2.834   6.699   5.329  0.1582 -0.1864  0.0489
   53TF    O91019660   2.831   6.783   5.211  0.4485 -0.1907  0.3927
   53TF    O91119661   2.712   6.682   5.399 -0.1347  0.1008 -0.3569
   53TF     C9Z19662   2.892   6.531   5.267 -0.1195 -0.3000  0.6178
   53TF    F91319663   2.895   6.443   5.362  0.4804 -0.0627  0.1264
   53TF    F91419664   2.804   6.477   5.178 -0.4248 -0.3599 -0.2359
   53TF    F91519665   3.011   6.537   5.209  0.5738 -0.1725  0.1783
   54TF     S9119666   5.713   4.198   2.445  0.0670 -0.2910  0.1432
   54TF     O9219667   5.666   4.199   2.577  0.5754 -0.0589  0.0535
   54TF     O9319668   5.623   4.194   2.335  0.2745 -0.3100  0.3082
   54TF     C9Z19669   5.795   4.368   2.424 -0.2924 -0.5169  0.3292
   54TF     F9519670   5.900   4.393   2.505  0.2862  0.4612 -0.3367
   54TF     F9619671   5.703   4.469   2.444 -0.0799  0.6218 -0.5565
   54TF     F9719672   5.833   4.389   2.298  0.1670  0.2171 -0.0234
   54TF     N9819673   5.824   4.091   2.431  0.1034 -0.6176  0.1035
   54TF     S9919674   5.858   4.038   2.289 -0.3155 -0.2655  0.2389
   54TF    O91019675   5.837   4.126   2.179 -0.5919  0.0244 -0.1900
   54TF    O91119676   5.821   3.899   2.271 -0.1035 -0.5008 -0.3330
   54TF     C9Z19677   6.042   4.046   2.300  0.3496 -0.1843  0.3378
   54TF    F91319678   6.087   4.170   2.318 -0.4367 -0.0395 -0.1838
   54TF    F91419679   6.084   3.970   2.402 -0.2236 -0.1157  0.2523
   54TF    F91519680   6.112   4.003   2.197 -0.1019 -0.3466 -0.5856
   55TF     S9119681   2.101   3.406   3.325 -0.1129  0.5204 -0.4633
   55TF     O9219682   2.089   3.550   3.297  0.3513 -0.0541  0.0053
   55TF     O9319683   2.025   3.355   3.434  0.0377  0.4585 -0.2936
   55TF     C9Z19684   2.037   3.320   3.183 -0.4409  0.1741 -0.2620
   55TF     F9519685   2.096   3.354   3.070 -0.0043  0.3477 -0.4978
   55TF     F9619686   1.908   3.347   3.177  0.3486  0.4184 -0.3639
   55TF     F9719687   2.041   3.189   3.203 -0.2130  0.8429 -0.0594
   55TF     N9819688   2.251   3.362   3.318  0.2185  0.4513 -0.5086
   55TF     S9919689   2.353   3.394   3.429  0.0314 -0.3717 -0.0071
   55TF    O91019690   2.303   3.503   3.514  0.0090 -0.0678 -0.1239
   55TF    O91119691   2.490   3.409   3.374 -0.2408 -0.3355  0.2836
   55TF     C9Z19692   2.351   3.244   3.531 -0.3650  0.3767 -0.3225
   55TF    F91319693   2.238   3.240   3.610  0.0052  0.2768 -0.4974
   55TF    F91419694   2.355   3.132   3.463  0.3582 -0.3893 -0.0255
   55TF    F91519695   2.454   3.236   3.611 -0.1638  0.0458  0.3710
   56TF     S9119696   3.908   2.817   6.304 -0.0929  0.4079 -0.0428
   56TF     O9219697   4.004   2.729   6.368 -0.2668 -0.5274  0.2777
   56TF     O9319698   3.960   2.902   6.202  0.2605 -0.1927 -0.8107
   56TF     C9Z19699   3.797   2.693   6.227 -0.4374  0.3236  0.5063
   56TF     F9519700   3.747   2.602   6.313 -0.1933  0.5538  0.1886
   56TF     F9619701   3.862   2.615   6.137  0.1011  0.4665  0.4615
   56TF     F9719702   3.694   2.752   6.161  0.1644  0.0693  0.0753
   56TF     N9819703   3.806   2.896   6.397 -0.2975 -0.0326 -0.4895
   56TF     S9919704   3.876   2.977   6.504 -0.3325  0.0880  0.2843
   56TF    O91019705   3.967   3.077   6.458  0.4715  0.2215  0.2065
   56TF    O91119706   3.916   2.893   6.619 -0.1886 -0.3367 -0.2602
   56TF     C9Z19707   3.731   3.073   6.569 -0.1087 -0.3177  0.0684
   56TF    F91319708   3.759   3.150   6.673  0.5518 -0.6413 -0.5502
   56TF    F91419709   3.665   3.147   6.477 -0.5630  0.4138  0.3512
   56TF    F91519710   3.641   2.987   6.615  0.4458 -0.0157 -0.4205
   57TF     S9119711   1.060   1.664   6.628  0.0714 -0.1552 -0.2302
   57TF     O9219712   1.184   1.624   6.566  0.0132 -0.3933 -0.6699
   57TF     O9319713   1.053   1.795   6.690  0.1667 -0.1073 -0.2488
   57TF     C9Z19714   0.941   1.659   6.486 -0.1263  0.0572  0.3803
   57TF     F9519715   0.834   1.731   6.491 -0.2492  0.0308  0.2903
   57TF     F9619716   0.901   1.538   6.447  0.3306  0.1169  0.1309
   57TF     F9719717   0.998   1.705   6.376  0.0432  0.1944  0.3712
   57TF     N9819718   1.001   1.557   6.715 -0.4063 -0.4542 -0.1239
   57TF     S9919719   1.051   1.515   6.854  0.0713  0.6582 -0.1320
   57TF    O91019720   0.959   1.547   6.961  0.4103  0.0839  0.4574
   57TF    O91119721   1.187   1.562   6.874  0.6033  0.4057  0.4142
   57TF     C9Z19722   1.044   1.333   6.842  1.1501 -0.6835 -0.4737
   57TF    F91319723   1.005   1.291   6.714  0.3837  0.5380  0.0371
   57TF    F91419724   1.155   1.275   6.875 -0.4360 -0.0598  0.0967
   57TF    F91519725   0.955   1.265   6.918 -0.0589 -0.3106 -0.2382
   58TF     S9119726   3.029   0.891   2.205 -0.1768 -0.4867  0.1884
   58TF     O9219727   3.005   0.923   2.065  0.3237 -0.0849 -0.0450
   58TF     O9319728   3.162   0.848   2.243 -0.0973 -0.2381  0.0899
   58TF     C9Z19729   3.019   1.058   2.292 -1.3245 -0.0397  0.3919
   58TF     F9519730   3.112   1.142   2.251  0.1447  0.2465 -0.3177
   58TF     F9619731   3.037   1.043   2.424 -0.1362  0.4172  0.4115
   58TF     F9719732   2.905   1.127   2.278  0.2561 -0.6117 -0.5061
   58TF     N9819733   2.921   0.798   2.269  0.2942  0.0143  0.8041
   58TF     S9919734   2.900   0.649   2.220 -0.0543 -0.4299 -0.2917
   58TF    O91019735   2.977   0.615   2.105 -0.1298  0.4270  0.6393
   58TF    O91119736   2.760   0.609   2.221 -0.2413 -0.0827  0.4580
   58TF     C9Z19737   2.977   0.540   2.363  0.4179  0.2473 -0.2800
   58TF    F91319738   3.103   0.545   2.376  0.8194  0.5751  0.0077
   58TF    F91419739   2.924   0.558   2.476  0.4160 -0.2939  0.2791
   58TF    F91519740   2.944   0.420   2.318 -0.4610  0.3418  0.4354
   59TF     S9119741   4.923   2.554   4.594  0.1837 -0.3619 -0.0060
   59TF     O9219742   4.918   2.577   4.451  0.6596  0.2484  0.2951
   59TF     O9319743   5.023   2.460   4.647  0.6437 -0.1147 -0.7252
   59TF     C9Z19744   4.961   2.716   4.663  0.4230  0.2325 -0.3780
   59TF     F9519745   5.079   2.763   4.644 -0.0011  0.4068  0.1346
   59TF     F9619746   4.947   2.714   4.796 -0.1410 -0.1275  0.4374
   59TF     F9719747   4.877   2.807   4.618  0.2928 -0.6141 -0.0793
   59TF     N9819748   4.779   2.525   4.646  0.2238 -0.1032  0.0630
   59TF     S9919749   4.653   2.546   4.554 -0.2547  0.0149 -0.3015
   59TF    O91019750   4.670   2.487   4.424 -0.2523  0.1068 -0.2690
   59TF    O91119751   4.595   2.680   4.563 -0.3721 -0.3479  0.8391
   59TF     C9Z19752   4.523   2.443   4.646  1.2816 -0.4728  0.4920
   59TF    F91319753   4.427   2.418   4.558  0.7562 -0.7212 -0.4637
   59TF    F91419754   4.559   2.332   4.696 -0.1409  0.3793 -0.8928
   59TF    F91519755   4.464   2.509   4.745 -0.2446  0.8200 -0.0116
   60TF     S9119756   0.877   0.052   4.062  0.2740  0.4308  0.3786
   60TF     O9219757   0.758  -0.031   4.051  0.2022 -0.2648  0.0461
   60TF     O9319758   0.883   0.151   4.169 -0.6630  0.0149  0.2321
   60TF     C9Z19759   1.018  -0.069   4.082  1.3788  0.6456 -0.8720
   60TF     F9519760   1.005  -0.158   3.982 -0.0992 -0.4286 -0.4482
   60TF     F9619761   1.007  -0.146   4.186  0.1299 -0.3338 -0.7077
   60TF     F9719762   1.143  -0.016   4.070  0.3453 -0.3064 -0.2025
   60TF     N9819763   0.906   0.125   3.926 -0.2924  0.0752  0.2782
   60TF     S9919764   0.803   0.176   3.825 -0.0062  0.1046  0.3380
   60TF    O91019765   0.756   0.309   3.851 -0.0922 -0.0570  0.3051
   60TF    O91119766   0.698   0.080   3.795 -0.1658  0.0559  0.0323
   60TF     C9Z19767   0.894   0.185   3.662  0.3654  0.0866 -0.0649
   60TF    F91319768   0.810   0.212   3.562  0.0684 -0.2045  0.2159
   60TF    F91419769   0.982   0.282   3.661  0.0013 -0.1600  0.5886
   60TF    F91519770   0.959   0.073   3.627  0.6465  0.1155  0.2906
   61TF     S9119771   0.798   6.456   1.715 -0.3263  0.0055  0.0354
   61TF     O9219772   0.852   6.363   1.618 -0.3583 -0.2931  0.0954
   61TF     O9319773   0.660   6.444   1.750 -0.2721 -0.0908  0.0686
   61TF     C9Z19774   0.889   6.413   1.870 -0.5708  0.7068  0.5084
   61TF     F9519775   0.886   6.505   1.961 -0.3851 -0.9678 -0.0392
   61TF     F9619776   1.019   6.385   1.841 -0.3909  0.0825 -0.2936
   61TF     F9719777   0.841   6.311   1.937  0.4579 -0.3343  0.3878
   61TF     N9819778   0.851   6.599   1.681 -0.3411 -0.7878  0.6464
   61TF     S9919779   0.778   6.723   1.733  0.5094 -0.2082  0.6592
   61TF    O91019780   0.818   6.750   1.874  0.0737 -0.5472 -0.3358
   61TF    O91119781   0.638   6.730   1.700 -0.1545 -0.2417 -0.1014
   61TF     C9Z19782   0.861   6.859   1.636 -0.1523  0.1374 -0.2472
   61TF    F91319783   0.994   6.864   1.660 -0.7462  0.0958  0.5791
   61TF    F91419784   0.849   6.831   1.505 -0.4854 -0.3174 -0.5760
   61TF    F91519785   0.824   6.983   1.651  0.1054 -0.1004  0.0664
   62TF     S9119786   1.518   1.084   4.433  0.0947 -0.1031  0.2499
   62TF     O9219787   1.606   1.162   4.518  0.3312  0.0036 -0.1195
   62TF     O9319788   1.570   1.047   4.300 -0.6191  0.3959 -0.0265
   62TF     C9Z19789   1.496   0.916   4.518  0.2157  0.2970 -0.0758
   62TF     F9519790   1.465   0.922   4.650  0.2600  0.2814 -0.3345
   62TF     F9619791   1.607   0.846   4.519  0.1398 -0.4604  0.6088
   62TF     F9719792   1.401   0.839   4.469  0.3752  0.0626  0.4037
   62TF     N9819793   1.373   1.133   4.429  0.5705 -0.2533 -0.5215
   62TF     S9919794   1.306   1.229   4.535  0.3867 -0.0867 -0.7133
   62TF    O91019795   1.268   1.354   4.478  0.1488 -0.6036  0.2739
   62TF    O91119796   1.369   1.236   4.667  0.4007 -0.1523  0.3179
   62TF     C9Z19797   1.144   1.149   4.579  0.0330  0.1749  0.4519
   62TF    F91319798   1.157   1.034   4.647 -0.5480 -0.4352  0.7659
   62TF    F91419799   1.074   1.232   4.653 -0.0578 -0.1835 -0.5515
   62TF    F91519800   1.071   1.117   4.475 -0.3804  0.4879  0.4503
   63TF     S9119801   4.599   0.009   6.756 -0.7854 -0.4667 -0.2486
   63TF     O9219802   4.655   0.093   6.857 -0.9938  0.5098  0.5416
   63TF     O9319803   4.684  -0.033   6.646  0.4026 -0.3591 -0.0415
   63TF     C9Z19804   4.555  -0.153   6.843 -0.1554 -0.1173 -0.6612
   63TF     F9519805   4.659  -0.217   6.891  0.5570  0.3591  0.3044
   63TF     F9619806   4.503  -0.234   6.758  0.5317 -0.6424  0.0550
   63TF     F9719807   4.468  -0.141   6.940 -0.0948 -0.0963  0.3786
   63TF     N9819808   4.469   0.056   6.689 -0.5086  1.1376 -0.2925
   63TF     S9919809   4.369   0.150   6.762  0.1924  0.4593 -0.3859
   63TF    O91019810   4.365   0.284   6.718  0.3464  0.4566 -0.0525
   63TF    O91119811   4.372   0.116   6.902  0.0433  0.4148  0.4330
   63TF     C9Z19812   4.205   0.080   6.720  0.0924 -0.3170 -0.5770
   63TF    F91319813   4.111   0.123   6.797  0.3253  0.0259  0.3213
   63TF    F91419814   4.157   0.102   6.599  0.4713  0.0020 -1.0065
   63TF    F91519815   4.202  -0.055   6.723 -0.3205  0.2720 -0.0949
   64TF     S9119816   6.446   2.579   4.642 -0.7450  0.0091  0.4899
   64TF     O9219817   6.359   2.468   4.680 -0.4372 -0.4118 -0.2465
   64TF     O9319818   6.382   2.694   4.591  0.3180 -0.8034  0.0537
   64TF     C9Z19819   6.525   2.628   4.803 -0.1002  1.1947 -0.7158
   64TF     F9519820   6.449   2.618   4.910  0.3320  0.7439  0.2486
   64TF     F9619821   6.571   2.748   4.801  0.4536 -0.0170  0.4158
   64TF     F9719822   6.637   2.559   4.820  0.2687  0.0693 -0.2387
   64TF     N9819823   6.567   2.532   4.557  0.0840  0.5336 -0.1876
   64TF     S9919824   6.563   2.451   4.427 -0.5565 -0.0296 -0.1162
   64TF    O91019825   6.429   2.441   4.377  0.4106  0.4937 -0.2326
   64TF    O91119826   6.642   2.330   4.419 -0.0774  0.9148 -0.2023
   64TF     C9Z19827   6.640   2.565   4.312  0.2652 -0.6660  0.2380
   64TF    F91319828   6.772   2.564   4.326  0.2132  0.6788 -0.2096
   64TF    F91419829   6.621   2.546   4.182  0.0126  0.5297 -0.0750
   64TF    F91519830   6.615   2.691   4.335 -0.0122  0.2192  0.1710
   65TF     S9119831   6.431   0.514   6.697 -0.2161  0.7283  0.1727
   65TF     O9219832   6.545   0.563   6.615 -0.2561 -0.2217  0.0168
   65TF     O9319833   6.415   0.566   6.831 -0.1247 -0.2243 -0.4189
   65TF     C9Z19834   6.283   0.583   6.613 -0.7800 -0.1098  0.0070
   65TF     F9519835   6.292   0.712   6.606  0.0643  0.0051  0.0592
   65TF     F9619836   6.175   0.549   6.687 -0.2792  0.0271 -0.0473
   65TF     F9719837   6.249   0.545   6.493 -0.0383  0.4991 -0.5612
   65TF     N9819838   6.412   0.361   6.701  0.0963 -0.5537 -0.2045
   65TF     S9919839   6.528   0.267   6.743 -0.1030  0.3645  0.2470
   65TF    O91019840   6.600   0.309   6.861  0.2085  0.1384 -0.4815
   65TF    O91119841   6.608   0.223   6.629  0.8534 -0.4868 -0.4223
   65TF     C9Z19842   6.445   0.111   6.797 -0.5581 -0.2121  0.1206
   65TF    F91319843   6.528   0.016   6.822  0.2237 -0.1256  0.4677
   65TF    F91419844   6.379   0.127   6.908 -0.1034  0.4293 -0.1275
   65TF    F91519845   6.365   0.055   6.711  0.2872 -0.1154 -0.4557
   66TF     S9119846   5.529   0.287   5.477  0.3645 -0.6600  0.3271
   66TF     O9219847   5.391   0.281   5.441  0.2953  0.3777 -0.1806
   66TF     O9319848   5.591   0.172   5.534 -0.0011 -0.0236  0.0702
   66TF     C9Z19849   5.612   0.329   5.325 -0.8065 -0.1521  0.0111
   66TF     F9519850   5.526   0.402   5.249  0.5423  0.0578 -0.2478
   66TF     F9619851   5.649   0.230   5.252 -0.5401  0.0798  0.1882
   66TF     F9719852   5.720   0.403   5.344  0.2207  0.2536 -0.8380
   66TF     N9819853   5.557   0.420   5.551  0.3353 -0.0253 -0.5475
   66TF     S9919854   5.493   0.460   5.693 -0.0832  0.1910  0.2205
   66TF    O91019855   5.451   0.349   5.772 -0.0287 -0.1074  0.0163
   66TF    O91119856   5.412   0.578   5.688 -0.1066 -0.3320 -0.2793
   66TF     C9Z19857   5.643   0.521   5.776 -0.5507 -0.1914 -0.2033
   66TF    F91319858   5.755   0.452   5.758  0.0111  0.4088 -0.2795
   66TF    F91419859   5.674   0.642   5.736  0.2035  0.3651 -0.3779
   66TF    F91519860   5.632   0.532   5.907  0.8040 -0.0745 -0.2805
   67TF     S9119861   2.906   3.303   2.648 -0.3056 -0.1622 -0.1888
   67TF     O9219862   2.967   3.192   2.579 -0.5036 -0.0889  0.3330
   67TF     O9319863   2.794   3.362   2.579 -0.6568  0.2330 -0.5975
   67TF     C9Z19864   2.834   3.220   2.799  0.4994 -0.4258 -0.1024
   67TF     F9519865   2.734   3.135   2.779 -0.9084  0.3397 -0.6555
   67TF     F9619866   2.779   3.310   2.883  0.3735  0.3684 -0.4391
   67TF     F9719867   2.926   3.156   2.869  0.0921 -0.0533 -0.6510
   67TF     N9819868   3.000   3.404   2.713 -0.1781 -0.1032 -0.2415
   67TF     S9919869   2.978   3.561   2.702  0.4056 -0.0080 -0.3868
   67TF    O91019870   2.912   3.616   2.817 -0.3740 -0.5146 -0.2377
   67TF    O91119871   2.936   3.613   2.572  0.0036 -0.6989  0.4856
   67TF     C9Z19872   3.145   3.627   2.708 -1.0711  0.0191 -0.7192
   67TF    F91319873   3.222   3.618   2.603 -0.1603 -0.2073  0.6381
   67TF    F91419874   3.140   3.755   2.727  0.0288  0.0568 -0.0211
   67TF    F91519875   3.215   3.580   2.812  0.1089  0.3467 -0.1039
   68TF     S9119876   0.670   5.230   4.150  0.1156 -0.1597  0.2388
   68TF     O9219877   0.560   5.291   4.222  0.0157 -0.0381  0.3893
   68TF     O9319878   0.638   5.143   4.037  0.1191 -0.5865  0.5046
   68TF     C9Z19879   0.763   5.370   4.080 -0.2992 -0.6652  0.0731
   68TF     F9519880   0.826   5.337   3.967 -0.1266  0.7090  0.3455
   68TF     F9619881   0.849   5.423   4.163 -0.2457 -0.4682 -0.0994
   68TF     F9719882   0.687   5.472   4.054  0.2539 -0.0233 -0.4069
   68TF     N9819883   0.775   5.166   4.246  0.2852 -0.0610 -0.2025
   68TF     S9919884   0.763   5.024   4.315 -0.2522 -0.5534  0.0777
   68TF    O91019885   0.878   4.943   4.301 -0.3887  0.0895 -0.3349
   68TF    O91119886   0.637   4.959   4.275 -0.4436 -0.0608  0.4311
   68TF     C9Z19887   0.736   5.066   4.496 -0.1615  0.7786  0.2650
   68TF    F91319888   0.788   5.189   4.520  0.0266  0.0638  1.0637
   68TF    F91419889   0.604   5.069   4.510 -0.1087  0.0164 -0.1969
   68TF    F91519890   0.767   4.984   4.598 -0.3243  0.3546  0.1922
   69TF     S9119891   1.503   2.505   5.117 -0.0307  0.0682  0.9159
   69TF     O9219892   1.432   2.618   5.149 -0.4526  0.1917 -0.4535
   69TF     O9319893   1.450   2.378   5.149  0.0397 -0.2289 -0.2126
   69TF     C9Z19894   1.518   2.511   4.936  0.5992 -0.4349  0.8041
   69TF     F9519895   1.558   2.629   4.884 -0.4864 -0.1027 -0.3302
   69TF     F9619896   1.407   2.482   4.872 -0.0821 -0.2480 -0.0538
   69TF     F9719897   1.608   2.423   4.889 -0.1950 -0.0488 -0.2548
   69TF     N9819898   1.650   2.531   5.167 -0.3027  0.3325  0.0171
   69TF     S9919899   1.686   2.521   5.316 -0.0049  0.1118  0.3000
   69TF    O91019900   1.598   2.426   5.387  0.1028  0.1642  0.0134
   69TF    O91119901   1.712   2.651   5.381  0.0508  0.5750 -0.3366
   69TF     C9Z19902   1.843   2.430   5.318  0.1666  0.4774  0.8603
   69TF    F91319903   1.828   2.309   5.265 -0.6384 -0.1566 -1.0824
   69TF    F91419904   1.929   2.489   5.235 -0.0224 -0.1608 -0.1218
   69TF    F91519905   1.912   2.421   5.431  0.2446 -0.7073 -0.0064
   70TF     S9119906   6.061   6.876   0.745  0.0878 -0.4945 -0.1958
   70TF     O9219907   5.915   6.867   0.754 -0.1293  0.1107  0.2555
   70TF     O9319908   6.121   7.011   0.743 -0.2264  0.0967  0.5343
   70TF     C9Z19909   6.114   6.791   0.898  0.3758  0.2896 -0.4275
   70TF     F9519910   6.062   6.673   0.896 -0.0118  0.2050 -0.1985
   70TF     F9619911   6.083   6.850   1.015  0.1771 -0.2450 -0.1775
   70TF     F9719912   6.243   6.780   0.895 -0.0067 -0.0511  0.2080
   70TF     N9819913   6.107   6.783   0.631  0.4499  0.6181  0.3109
   70TF     S9919914   6.237   6.814   0.551  0.1689 -0.3086  0.5922
   70TF    O91019915   6.334   6.865   0.639 -0.0783  0.1958  0.6121
   70TF    O91119916   6.221   6.877   0.425  1.0169 -0.3373  0.1533
   70TF     C9Z19917   6.293   6.643   0.510  0.4530 -0.2971 -0.0012
   70TF    F91319918   6.406   6.637   0.448  0.1459  0.1592 -0.0715
   70TF    F91419919   6.321   6.582   0.624  0.3214  0.6566 -0.1218
   70TF    F91519920   6.218   6.561   0.445  0.8101  0.0077 -0.7565
   71TF     S9119921   4.279   3.934   3.404  0.2632  0.2218 -0.4367
   71TF     O9219922   4.378   3.837   3.379  0.1514 -0.6447 -0.5358
   71TF     O9319923   4.185   3.960   3.295 -0.4367 -0.0798  0.2479
   71TF     C9Z19924   4.179   3.855   3.539 -0.1090  0.6196  1.3894
   71TF     F9519925   4.247   3.818   3.638 -0.0767  0.5349 -0.0945
   71TF     F9619926   4.122   3.746   3.505  0.1191  0.3696 -0.1174
   71TF     F9719927   4.083   3.937   3.585 -0.0561  0.1179  0.1857
   71TF     N9819928   4.324   4.066   3.476 -0.5059 -0.2017  0.5196
   71TF     S9919929   4.465   4.130   3.454 -0.5116  0.4376  0.2050
   71TF    O91019930   4.534   4.074   3.341 -0.5881  0.0184 -0.0892
   71TF    O91119931   4.527   4.136   3.581  0.2901  0.1849  0.4188
   71TF     C9Z19932   4.419   4.303   3.406  0.8025 -0.4336  0.1019
   71TF    F91319933   4.316   4.306   3.320 -0.5188 -0.1755 -0.6259
   71TF    F91419934   4.374   4.372   3.504  0.0464 -0.1922 -0.3494
   71TF    F91519935   4.506   4.389   3.353 -0.4966 -0.2479  0.3357
   72TF     S9119936   5.383   3.286   4.608  0.1667 -0.0556  0.0747
   72TF     O9219937   5.471   3.268   4.723  0.0021 -0.1364 -0.6397
   72TF     O9319938   5.366   3.424   4.563  0.1240 -0.4052 -0.3527
   72TF     C9Z19939   5.468   3.201   4.475  0.1572 -0.5662 -0.3756
   72TF     F9519940   5.417   3.209   4.352  0.4573 -0.2333  0.2915
   72TF     F9619941   5.477   3.073   4.502  0.2385 -0.5657 -0.3391
   72TF     F9719942   5.591   3.243   4.466 -0.2534  0.0879  0.0695
   72TF     N9819943   5.247   3.211   4.618 -0.6572 -0.0517 -0.2382
   72TF     S9919944   5.197   3.170   4.762  0.2339  0.0805  0.0060
   72TF    O91019945   5.206   3.287   4.850 -0.2935  0.1448 -0.5150
   72TF    O91119946   5.250   3.045   4.811 -0.5724 -0.2169 -0.1241
   72TF     C9Z19947   5.015   3.142   4.736  0.2745  0.2523  0.1170
   72TF    F91319948   4.948   3.101   4.839 -0.3044  0.1741 -0.3918
   72TF    F91419949   4.955   3.249   4.688  0.1824 -0.2999 -0.3107
   72TF    F91519950   5.003   3.045   4.649 -0.8758 -0.4771  0.2241
   73TF     S9119951   3.046   5.908   0.852  0.1933  0.0540 -0.4769
   73TF     O9219952   3.058   6.041   0.895 -0.6430 -0.3069 -0.3881
   73TF     O9319953   2.911   5.879   0.815 -0.6433 -0.0497  0.5645
   73TF     C9Z19954   3.135   5.904   0.681  0.0631  0.4697  0.0440
   73TF     F9519955   3.114   6.014   0.615  0.0825  0.1588  0.1227
   73TF     F9619956   3.100   5.798   0.608 -0.3682 -0.4543  0.2530
   73TF     F9719957   3.265   5.898   0.699  0.3472 -0.1115  0.0703
   73TF     N9819958   3.123   5.801   0.939 -0.1874 -0.3244 -0.8546
   73TF     S9919959   3.226   5.834   1.053  0.0674  0.0128 -0.1273
   73TF    O91019960   3.194   5.953   1.125 -0.0790  0.2232 -0.5528
   73TF    O91119961   3.365   5.814   1.014 -0.2906  0.4072 -0.0359
   73TF     C9Z19962   3.196   5.691   1.182 -0.4638 -0.5334 -0.2382
   73TF    F91319963   3.225   5.578   1.134  0.3501 -0.5481 -0.0668
   73TF    F91419964   3.274   5.705   1.289  0.5003 -0.3098 -0.4216
   73TF    F91519965   3.074   5.682   1.223  0.1518  0.6193 -0.1768
   74TF     S9119966   4.813   1.522   5.059  0.4350  0.6712  0.4812
   74TF     O9219967   4.693   1.457   5.006  0.3276  1.1385  0.3143
   74TF     O9319968   4.939   1.456   5.032 -0.4627 -0.1653 -0.7037
   74TF     C9Z19969   4.816   1.688   4.977 -0.6466 -0.5050 -0.2156
   74TF     F9519970   4.920   1.761   5.025  0.3573  0.1193  0.5212
   74TF     F9619971   4.711   1.765   4.994  0.1158 -0.3467  0.0948
   74TF     F9719972   4.830   1.671   4.846  0.3392 -0.0127  0.1282
   74TF     N9819973   4.799   1.560   5.208  0.3145  0.0636  0.0082
   74TF     S9919974   4.738   1.454   5.301  0.2575  0.1009  0.3194
   74TF    O91019975   4.805   1.328   5.280 -0.1516 -0.3050  0.3566
   74TF    O91119976   4.594   1.450   5.316  0.7816  0.0732  0.4448
   74TF     C9Z19977   4.786   1.514   5.467 -0.6201 -0.3236 -0.5653
   74TF    F91319978   4.738   1.439   5.566 -0.2564 -0.0716  0.2938
   74TF    F91419979   4.914   1.520   5.494 -0.8366  0.1773 -0.9931
   74TF    F91519980   4.749   1.640   5.496  0.5887  0.0381  0.0672
   75TF     S9119981   4.832   5.531   6.309  0.0319 -0.3578 -0.2941
   75TF     O9219982   4.791   5.404   6.361 -0.6304  0.4374 -0.4779
   75TF     O9319983   4.965   5.544   6.253 -0.5258 -0.3301  0.2369
   75TF     C9Z19984   4.707   5.581   6.180 -0.0496 -0.3487  0.1581
   75TF     F9519985   4.749   5.676   6.101  0.1147 -0.0597 -0.0797
   75TF     F9619986   4.590   5.626   6.221  0.0324 -0.0127 -0.6420
   75TF     F9719987   4.671   5.484   6.099 -0.3362  0.6411  0.2455
   75TF     N9819988   4.810   5.649   6.408 -0.0854 -0.1376  0.1382
   75TF     S9919989   4.880   5.646   6.545  0.1685 -0.1997 -0.3722
   75TF    O91019990   4.905   5.511   6.597  0.0505 -0.1580 -0.2507
   75TF    O91119991   4.812   5.736   6.635 -0.4145 -0.4701 -0.2154
   75TF     C9Z19992   5.041   5.727   6.510  0.0444  0.1800 -0.1155
   75TF    F91319993   5.132   5.655   6.436 -0.3383 -0.0598  0.0768
   75TF    F91419994   5.026   5.841   6.442 -0.0707  0.1639 -0.4268
   75TF    F91519995   5.119   5.758   6.613 -0.3965  0.4394  0.7210
   76TF     S9119996   1.604   2.994   6.775  0.2690 -0.1323  0.2096
   76TF     O9219997   1.584   2.931   6.898  0.1069  0.0235 -0.0560
   76TF     O9319998   1.526   3.117   6.738  0.1151 -0.8261  0.0621
   76TF     C9Z19999   1.784   3.047   6.774  0.2630 -0.2775 -0.0993
   76TF     F9520000   1.804   3.158   6.846 -0.2820 -0.0839 -0.0368
   76TF     F9620001   1.829   3.077   6.648 -0.5686 -0.1917  0.1658
   76TF     F9720002   1.874   2.965   6.820 -0.0739 -0.1467 -0.4235
   76TF     N9820003   1.607   2.886   6.667 -0.5797  0.7403 -0.3961
   76TF     S9920004   1.483   2.787   6.653  0.1004  0.2851  0.4270
   76TF    O91020005   1.361   2.867   6.644 -0.1665 -0.1167 -0.2352
   76TF    O91120006   1.487   2.675   6.747  0.1869  0.7276  0.1965
   76TF     C9Z20007   1.494   2.708   6.487 -0.7917  0.0884 -1.1579
   76TF    F91320008   1.419   2.598   6.491  0.1251 -0.1670  0.5642
   76TF    F91420009   1.430   2.779   6.398  0.2430  0.0502 -0.3215
   76TF    F91520010   1.604   2.675   6.421 -0.2351 -0.1992  0.6000
   77TF     S9120011   6.187   0.052   4.979  0.4293  0.2463  0.0219
   77TF     O9220012   6.189  -0.014   4.851  0.3473  0.4533 -0.0034
   77TF     O9320013   6.089   0.012   5.080  0.1638  0.4983  0.7155
   77TF     C9Z20014   6.354   0.001   5.055 -0.3640  0.3851 -0.9571
   77TF     F9520015   6.383  -0.130   5.041  0.0991  0.2451 -0.2638
   77TF     F9620016   6.342   0.019   5.183 -0.0026 -0.0741  0.4382
   77TF     F9720017   6.459   0.072   5.018  0.1777  0.3417 -0.0942
   77TF     N9820018   6.189   0.206   4.969 -0.1338  0.3655  0.1682
   77TF     S9920019   6.112   0.280   4.854 -0.1767  0.3229 -0.0085
   77TF    O91020020   6.007   0.197   4.799  0.0155 -0.5434 -0.1946
   77TF    O91120021   6.198   0.343   4.761  0.5172  0.7471  0.1676
   77TF     C9Z20022   6.009   0.403   4.944  0.3837 -0.2751 -0.2652
   77TF    F91320023   5.914   0.346   5.027 -0.1568  0.0884  0.1061
   77TF    F91420024   6.080   0.489   5.016  0.1465 -0.2340 -0.1343
   77TF    F91520025   5.944   0.476   4.851 -0.5254  0.2647  0.1041
   78TF     S9120026   2.480   2.639   4.724 -0.3965 -0.5414  0.2020
   78TF     O9220027   2.410   2.708   4.828 -0.8987  0.0902 -0.0046
   78TF     O9320028   2.462   2.495   4.721 -0.4753  0.4112  0.3976
   78TF     C9Z20029   2.387   2.693   4.576  0.2646  0.0697  0.8445
   78TF     F9520030   2.419   2.629   4.459  0.3180  0.0238 -0.3669
   78TF     F9620031   2.408   2.819   4.558  0.1316  0.4916  0.0455
   78TF     F9720032   2.255   2.681   4.592  0.4478 -0.0361 -0.2582
   78TF     N9820033   2.626   2.689   4.695  0.5486 -0.2302  0.2119
   78TF     S9920034   2.747   2.635   4.777 -0.1605 -0.4874  0.1717
   78TF    O91020035   2.846   2.565   4.697  0.3838  0.4158 -0.2838
   78TF    O91120036   2.712   2.576   4.903  0.3346 -0.2835  0.0462
   78TF     C9Z20037   2.837   2.791   4.819  0.6264 -0.5352  0.4069
   78TF    F91320038   2.939   2.761   4.901  0.0406  0.5242  0.4076
   78TF    F91420039   2.899   2.834   4.711 -0.3340  0.3500  0.1461
   78TF    F91520040   2.781   2.892   4.879  0.2325  0.4338  0.2752
   79TF     S9120041   0.162   5.298   5.328  0.4135  0.0741  0.2576
   79TF     O9220042   0.176   5.276   5.185  0.1902  0.4430 -0.3087
   79TF     O9320043   0.276   5.337   5.403 -0.7224 -0.5817  0.7791
   79TF     C9Z20044   0.044   5.445   5.331 -0.5155  0.2666 -0.2166
   79TF     F9520045  -0.014   5.459   5.448 -0.1247  0.4187  0.1071
   79TF     F9620046  -0.054   5.417   5.243 -0.0653  0.1809 -0.3254
   79TF     F9720047   0.089   5.564   5.289  0.3423 -0.7880 -0.1531
   79TF     N9820048   0.073   5.189   5.401  0.3063  0.1288 -0.8149
   79TF     S9920049   0.080   5.039   5.379  0.0336  0.2883 -0.1037
   79TF    O91020050   0.162   4.975   5.476  0.3537 -0.0734 -0.5659
   79TF    O91120051   0.106   5.003   5.236  0.2357 -0.3624  0.4510
   79TF     C9Z20052  -0.095   4.984   5.406 -0.3749  0.6210  0.1254
   79TF    F91320053  -0.139   5.002   5.533  0.1210 -0.1702 -0.1044
   79TF    F91420054  -0.179   5.055   5.326  0.1534 -0.0074  0.5136
   79TF    F91520055  -0.117   4.860   5.372 -0.5083  0.1898 -0.5275
   80TF     S9120056   6.343   2.770   0.545  0.1655  0.0965  0.2292
   80TF     O9220057   6.363   2.668   0.641  0.2531 -0.2647 -0.3566
   80TF     O9320058   6.209   2.802   0.514 -0.3731  0.1458 -0.2571
   80TF     C9Z20059   6.412   2.921   0.634 -0.8365  0.3220 -0.9923
   80TF     F9520060   6.363   2.941   0.754 -0.0654  0.1686  0.0211
   80TF     F9620061   6.385   3.029   0.566  0.1373  0.2240  0.0735
   80TF     F9720062   6.544   2.919   0.644  0.3747  0.0530  0.3185
   80TF     N9820063   6.437   2.779   0.420 -0.0508  1.0658  0.2096
   80TF     S9920064   6.389   2.775   0.272  0.0626  0.0584  0.6488
   80TF    O91020065   6.432   2.898   0.208  0.4654  0.8079  0.3662
   80TF    O91120066   6.257   2.731   0.245  0.0710  0.4244 -0.1500
   80TF     C9Z20067   6.491   2.639   0.190  0.3718 -0.2897 -0.2090
   80TF    F91320068   6.619   2.655   0.207 -0.3399  0.0399  0.4178
   80TF    F91420069   6.452   2.521   0.239  0.1862  0.0295 -0.3562
   80TF    F91520070   6.469   2.629   0.057 -0.5566 -0.2611 -0.0301
   81TF     S9120071   5.862   3.575   4.037  0.4444 -0.4353  0.5674
   81TF     O9220072   5.936   3.462   3.984 -0.2012 -0.2301  0.2048
   81TF     O9320073   5.891   3.623   4.170  0.1809  0.6567 -0.0663
   81TF     C9Z20074   5.905   3.715   3.918  0.4408  0.6714  0.1351
   81TF     F9520075   5.853   3.832   3.970  0.7542  0.1340  0.3134
   81TF     F9620076   5.851   3.697   3.799 -0.3489  0.1098 -0.0183
   81TF     F9720077   6.036   3.724   3.896 -0.0672  0.5292  0.3239
   81TF     N9820078   5.710   3.571   4.011  0.6611 -0.3096 -0.2486
   81TF     S9920079   5.628   3.451   3.956  0.1086  0.2169  0.0300
   81TF    O91020080   5.696   3.325   3.949 -0.3042  0.2323  0.4459
   81TF    O91120081   5.548   3.487   3.842  0.1329  0.0064  0.3786
   81TF     C9Z20082   5.510   3.414   4.084  0.4406 -0.3117  0.6180
   81TF    F91320083   5.455   3.295   4.071  0.3277 -0.1619 -0.0010
   81TF    F91420084   5.565   3.408   4.206  0.4280  0.5590 -0.1015
   81TF    F91520085   5.404   3.495   4.102 -0.6964  0.2521  0.3840
   82TF     S9120086   0.879   5.228   6.326 -0.4899  0.0289  0.1707
   82TF     O9220087   0.747   5.265   6.282 -0.4385 -0.0413 -0.6062
   82TF     O9320088   0.972   5.176   6.229  0.0481  0.0199  0.0416
   82TF     C9Z20089   0.946   5.388   6.385  0.4515  0.2928  0.4757
   82TF     F9520090   0.890   5.432   6.493  0.2870  0.3759 -0.0592
   82TF     F9620091   0.935   5.484   6.292 -0.0406  0.4397 -0.0367
   82TF     F9720092   1.074   5.385   6.410  0.4465  0.3410 -0.0821
   82TF     N9820093   0.868   5.153   6.459  0.4333  0.3138  0.2824
   82TF     S9920094   0.869   5.001   6.469 -0.2801  0.1863  0.0223
   82TF    O91020095   1.007   4.950   6.482  0.2482 -0.0221  0.7744
   82TF    O91120096   0.785   4.949   6.362 -0.0762 -1.0139 -0.4249
   82TF     C9Z20097   0.790   4.970   6.634 -0.1164 -0.1236  0.4232
   82TF    F91320098   0.663   5.013   6.627  0.4934 -0.0766  0.3104
   82TF    F91420099   0.785   4.837   6.662 -0.3880  0.9244  0.4496
   82TF    F91520100   0.836   5.029   6.744 -0.0683  0.1839  0.2661
   83TF     S9120101   0.386   0.027   6.551 -0.5600 -0.0279 -0.0963
   83TF     O9220102   0.326  -0.068   6.647 -0.0946 -0.8518 -0.0610
   83TF     O9320103   0.321   0.146   6.518 -0.2872  0.5163 -0.2249
   83TF     C9Z20104   0.547   0.075   6.632  0.2763 -0.4565  0.2262
   83TF     F9520105   0.616   0.163   6.555  0.8938 -0.2040  0.1823
   83TF     F9620106   0.617  -0.040   6.644 -0.2546 -0.0555  0.3784
   83TF     F9720107   0.530   0.136   6.749  0.7695  0.1967 -0.0109
   83TF     N9820108   0.433  -0.051   6.427 -0.4557  0.0417  0.5556
   83TF     S9920109   0.345  -0.132   6.329 -0.5547  0.1152  0.2872
   83TF    O91020110   0.206  -0.137   6.370  0.1273  0.0994 -0.4615
   83TF    O91120111   0.402  -0.248   6.272  0.0761 -0.4643  0.0796
   83TF     C9Z20112   0.345  -0.017   6.188  0.0417  0.1612  0.2229
   83TF    F91320113   0.297   0.101   6.228 -0.0018 -0.1850  0.0033
   83TF    F91420114   0.475   0.008   6.155 -0.2178  0.3497 -0.3133
   83TF    F91520115   0.281  -0.039   6.078 -0.0310  0.2096  0.1278
   84TF     S9120116   0.570   6.740   4.647  0.1349  0.0870  0.0398
   84TF     O9220117   0.682   6.659   4.681 -0.3375  0.6187 -0.0713
   84TF     O9320118   0.542   6.847   4.740 -0.4399  0.2220 -0.2420
   84TF     C9Z20119   0.604   6.822   4.487  0.0932 -0.2975 -0.1651
   84TF     F9520120   0.508   6.911   4.452  0.2756 -0.2291  0.2896
   84TF     F9620121   0.614   6.734   4.389  0.3844  0.0388 -0.4631
   84TF     F9720122   0.719   6.895   4.485 -0.0659 -0.3939 -0.3096
   84TF     N9820123   0.443   6.649   4.620 -0.0872  0.8672 -0.5165
   84TF     S9920124   0.339   6.625   4.729  0.2521 -0.1273 -0.3363
   84TF    O91020125   0.390   6.626   4.867  0.2587  0.1634 -0.0157
   84TF    O91120126   0.254   6.509   4.693 -0.1955  0.1698  0.0417
   84TF     C9Z20127   0.225   6.772   4.724 -0.2662  0.5841  0.3421
   84TF    F91320128   0.112   6.731   4.784 -0.4406 -0.2179 -0.3550
   84TF    F91420129   0.263   6.872   4.797  0.2605 -0.5767  0.0366
   84TF    F91520130   0.187   6.821   4.607  0.0600  0.2839  0.1515
   85TF     S9120131   3.438   6.358   6.865  0.4890  0.1612  0.4243
   85TF     O9220132   3.341   6.458   6.893  0.0081 -0.5033  0.4001
   85TF     O9320133   3.544   6.407   6.784 -0.2594  0.1944  0.3505
   85TF     C9Z20134   3.518   6.313   7.025  0.2821 -0.2067 -0.6939
   85TF     F9520135   3.445   6.259   7.118  0.1499 -0.1853  0.1450
   85TF     F9620136   3.568   6.411   7.088 -0.2474 -0.0865 -0.4822
   85TF     F9720137   3.614   6.227   7.003  0.1988 -0.0815  0.3090
   85TF     N9820138   3.375   6.224   6.820  0.4334 -0.3873 -0.5144
   85TF     S9920139   3.435   6.140   6.705 -0.4506 -0.1022  0.2492
   85TF    O91020140   3.550   6.068   6.757  0.0331 -0.8733  0.1447
   85TF    O91120141   3.456   6.214   6.585  0.1681 -0.2611 -0.2252
   85TF     C9Z20142   3.319   6.009   6.655 -0.7584 -0.0046 -0.0736
   85TF    F91320143   3.194   6.058   6.641 -0.3368  0.1567  0.2290
   85TF    F91420144   3.345   5.955   6.537  0.0559 -0.0503  0.6219
   85TF    F91520145   3.299   5.918   6.747  0.1117  0.2426  0.5041
   86TF     S9120146   6.754   1.343   1.962 -0.3317  0.3304 -0.1105
   86TF     O9220147   6.633   1.421   1.968 -0.1854  0.4667  0.3057
   86TF     O9320148   6.761   1.242   2.063  0.2920  0.3878 -0.2327
   86TF     C9Z20149   6.745   1.256   1.789 -0.6799  0.0881 -0.6619
   86TF     F9520150   6.642   1.184   1.768 -0.2537  0.0959  0.4401
   86TF     F9620151   6.850   1.182   1.775  0.3458 -0.0607 -0.2974
   86TF     F9720152   6.754   1.336   1.683 -0.1137 -0.1781  0.2862
   86TF     N9820153   6.882   1.425   1.950  0.1986  0.6664 -0.5655
   86TF     S9920154   6.890   1.581   1.983 -0.0293 -0.5441  0.2673
   86TF    O91020155   7.025   1.617   2.015 -0.1052 -0.4771  0.2796
   86TF    O91120156   6.778   1.637   2.061 -0.2402  0.3451  0.8783
   86TF     C9Z20157   6.863   1.652   1.813 -0.2204  0.0896 -0.0017
   86TF    F91320158   6.963   1.618   1.734  0.4472 -0.1133 -0.3456
   86TF    F91420159   6.750   1.630   1.747 -0.1739 -0.1755 -0.0252
   86TF    F91520160   6.877   1.785   1.821  0.0138  0.1508 -0.1858
   87TF     S9120161   1.444   5.025   5.645 -0.0666 -0.2643  0.1767
   87TF     O9220162   1.441   5.007   5.503 -0.0705  0.4281 -0.1022
   87TF     O9320163   1.319   5.033   5.718 -0.2295  0.5354  1.1019
   87TF     C9Z20164   1.513   4.872   5.720  0.6791  0.5910  0.1887
   87TF     F9520165   1.475   4.860   5.848 -0.4679  0.0847  0.1286
   87TF     F9620166   1.645   4.862   5.720 -0.6666  0.6895 -0.2593
   87TF     F9720167   1.471   4.765   5.660  0.5767 -0.7949 -0.2005
   87TF     N9820168   1.556   5.131   5.687  0.7812 -0.3578 -0.3320
   87TF     S9920169   1.636   5.217   5.593  0.2669 -0.7775 -0.4794
   87TF    O91020170   1.581   5.352   5.580  0.0398 -0.3155  0.1622
   87TF    O91120171   1.676   5.148   5.469  0.3593  0.0893 -0.2795
   87TF     C9Z20172   1.797   5.245   5.679 -0.2124 -0.2975 -0.0848
   87TF    F91320173   1.898   5.271   5.595  0.5194 -0.0556 -0.6072
   87TF    F91420174   1.784   5.352   5.760  0.5613 -0.1248  0.4490
   87TF    F91520175   1.838   5.140   5.750 -0.5086 -0.0129 -0.2562
   88TF     S9120176   4.729   4.361   2.799 -0.0828 -0.4094  0.5811
   88TF     O9220177   4.645   4.246   2.819  0.3404  0.0859  0.2242
   88TF     O9320178   4.681   4.493   2.844 -0.0096  0.0886  0.1585
   88TF     C9Z20179   4.882   4.337   2.905 -0.1270 -0.3794  0.2222
   88TF     F9520180   4.954   4.447   2.900 -0.1984 -0.0038  0.5817
   88TF     F9620181   4.957   4.244   2.847  0.0540 -0.1089  0.2708
   88TF     F9720182   4.856   4.297   3.035  0.5432  0.1480 -0.4683
   88TF     N9820183   4.774   4.375   2.661 -0.1572  0.1635  0.6158
   88TF     S9920184   4.677   4.409   2.549  0.0631 -0.0223  0.0487
   88TF    O91020185   4.626   4.543   2.557 -0.3185  0.1775  0.3616
   88TF    O91120186   4.587   4.299   2.513  0.2619 -0.1092  0.8809
   88TF     C9Z20187   4.776   4.412   2.385 -0.1332 -0.9479  0.1598
   88TF    F91320188   4.700   4.412   2.281 -0.2696  0.3523 -0.1959
   88TF    F91420189   4.856   4.515   2.368 -0.0656 -0.1262 -0.3518
   88TF    F91520190   4.861   4.309   2.373  0.2447 -0.1584  0.2822
   89TF     S9120191   0.505   6.706   2.918  0.0806  0.2076 -0.0449
   89TF     O9220192   0.608   6.796   2.863 -0.3914  0.0468  0.2331
   89TF     O9320193   0.534   6.651   3.051  0.4977 -0.1076  0.5602
   89TF     C9Z20194   0.359   6.808   2.949  1.1456 -0.6993  0.1069
   89TF     F9520195   0.310   6.860   2.841 -0.0541 -0.0216 -0.1499
   89TF     F9620196   0.390   6.903   3.036  0.3393  0.4749 -0.3585
   89TF     F9720197   0.260   6.739   3.007 -0.3489 -0.1388  0.4631
   89TF     N9820198   0.444   6.605   2.821  0.3178  0.2586  0.6308
   89TF     S9920199   0.471   6.452   2.837  0.0183  0.1227  0.0225
   89TF    O91020200   0.397   6.377   2.938  0.1312  0.8386 -0.0548
   89TF    O91120201   0.615   6.422   2.831  0.1000 -0.9694  0.0006
   89TF     C9Z20202   0.420   6.386   2.667  0.0940 -0.5480  0.6880
   89TF    F91320203   0.299   6.421   2.637  0.3189 -0.0587  0.0612
   89TF    F91420204   0.483   6.433   2.567 -0.1848  0.2656 -0.5645
   89TF    F91520205   0.419   6.260   2.631 -0.1226 -0.5265  0.1626
   90TF     S9120206   5.915   5.681   1.323 -0.4562 -0.1525  0.1314
   90TF     O9220207   5.810   5.781   1.330  0.1545 -0.1839  0.0624
   90TF     O9320208   5.884   5.556   1.265  0.8886  0.1171  0.5635
   90TF     C9Z20209   6.055   5.759   1.227  0.3733 -0.2212 -0.0475
   90TF     F9520210   6.083   5.879   1.284  0.0482  0.5441 -0.1202
   90TF     F9620211   6.019   5.777   1.101  0.2945  0.7361  0.0487
   90TF     F9720212   6.168   5.695   1.238 -0.1219 -0.1193  0.0775
   90TF     N9820213   5.973   5.668   1.472  0.0314  0.0452  0.6851
   90TF     S9920214   5.881   5.614   1.576  0.0564  0.1057  0.0346
   90TF    O91020215   5.911   5.475   1.615  0.2941 -0.2597 -0.6053
   90TF    O91120216   5.740   5.639   1.545  0.0733  0.6372  0.1428
   90TF     C9Z20217   5.911   5.713   1.731 -0.3705  0.3807  0.0433
   90TF    F91320218   6.020   5.681   1.797 -0.6806 -0.1370 -0.1374
   90TF    F91420219   5.912   5.840   1.696 -0.4668 -0.1209  0.1395
   90TF    F91520220   5.811   5.696   1.823  0.3786 -0.2844  0.3079
   91TF     S9120221   0.135   0.367   5.771 -0.1344 -0.3506  0.5368
   91TF     O9220222   0.160   0.461   5.876 -0.3799 -0.1698  0.2618
   91TF     O9320223   0.229   0.363   5.661 -0.4104  0.7993 -0.1339
   91TF     C9Z20224   0.152   0.201   5.846 -0.3077  0.3915 -0.5355
   91TF     F9520225   0.068   0.115   5.789 -0.4000 -0.1109 -0.3266
   91TF     F9620226   0.124   0.211   5.978 -0.2343 -0.2115 -0.1299
   91TF     F9720227   0.279   0.155   5.841  0.0408 -0.3113 -0.2925
   91TF     N9820228  -0.008   0.387   5.709  0.2649 -0.0759 -0.0087
   91TF     S9920229  -0.039   0.513   5.624 -0.0358  0.2758 -0.0758
   91TF    O91020230   0.076   0.561   5.549  0.5705 -0.5312 -0.2366
   91TF    O91120231  -0.114   0.612   5.699  0.3226 -0.0536  0.3049
   91TF     C9Z20232  -0.168   0.444   5.506 -0.3244 -0.1644 -0.4156
   91TF    F91320233  -0.132   0.331   5.448  0.0048  0.3966 -0.4769
   91TF    F91420234  -0.277   0.421   5.579  0.0152  0.2887  0.0740
   91TF    F91520235  -0.204   0.525   5.411  0.2308 -0.0819  0.5186
   92TF     S9120236   6.878   5.615   1.681 -0.3899 -0.0200 -0.0107
   92TF     O9220237   6.799   5.558   1.787 -0.4492  0.0681  0.1726
   92TF     O9320238   6.806   5.659   1.562  0.1826  0.8062  0.1620
   92TF     C9Z20239   6.955   5.763   1.760  0.0334 -0.4125  0.2870
   92TF     F9520240   7.056   5.813   1.688  0.0670  0.0714 -0.0228
   92TF     F9620241   7.002   5.733   1.880  0.1696  0.5536  0.3441
   92TF     F9720242   6.877   5.869   1.782 -0.7377  0.2597  0.5001
   92TF     N9820243   7.000   5.519   1.646  0.2100 -0.4891 -0.4785
   92TF     S9920244   6.976   5.391   1.566 -0.2023 -0.0964 -0.2324
   92TF    O91020245   6.839   5.372   1.518 -0.3419  0.0891  0.2108
   92TF    O91120246   7.041   5.285   1.641 -1.0569  0.4810 -0.0075
   92TF     C9Z20247   7.083   5.412   1.419  0.1137 -0.9298 -0.2927
   92TF    F91320248   7.050   5.523   1.360 -0.1577  0.0510 -0.4553
   92TF    F91420249   7.208   5.434   1.454 -0.1354  0.3563 -0.0717
   92TF    F91520250   7.079   5.323   1.327 -0.0211  0.4434 -0.6755
   93TF     S9120251   0.827   2.926   3.658 -0.1277  0.0367 -0.0093
   93TF     O9220252   0.710   2.916   3.744 -0.0801  0.1691 -0.2578
   93TF     O9320253   0.813   2.973   3.523  0.3928 -0.6429 -0.2756
   93TF     C9Z20254   0.931   3.059   3.734 -0.2021 -0.3117 -0.2920
   93TF     F9520255   0.864   3.172   3.722  0.4930 -0.1203 -0.4928
   93TF     F9620256   1.054   3.073   3.696  0.6023 -0.4865 -0.2251
   93TF     F9720257   0.939   3.039   3.864 -0.0072 -0.2423  0.4812
   93TF     N9820258   0.922   2.805   3.663 -0.0402 -0.4786  0.9081
   93TF     S9920259   0.870   2.661   3.684  0.2386  0.0853  0.3893
   93TF    O91020260   0.764   2.625   3.594  0.2265 -0.2831  0.7774
   93TF    O91120261   0.860   2.626   3.823 -0.5245 -0.0120  0.1230
   93TF     C9Z20262   1.010   2.555   3.617 -0.3717  0.3506 -0.4749
   93TF    F91320263   0.969   2.425   3.603  0.1877 -0.0246 -0.4961
   93TF    F91420264   1.063   2.597   3.505  0.1611 -0.1326 -0.8947
   93TF    F91520265   1.116   2.545   3.692  0.0159 -0.0337 -0.2196
   94TF     S9120266   3.782   2.068   2.473 -0.1930 -0.0524 -0.2235
   94TF     O9220267   3.886   2.150   2.538  0.5954  0.5038  0.6691
   94TF     O9320268   3.781   1.929   2.507  0.3992 -0.2070  0.1702
   94TF     C9Z20269   3.617   2.136   2.538  0.0274 -0.4123  0.1662
   94TF     F9520270   3.615   2.144   2.669  0.3073  0.1505  0.3384
   94TF     F9620271   3.513   2.059   2.503 -0.4777  0.1655  0.3556
   94TF     F9720272   3.591   2.259   2.494  0.5252 -0.1976 -0.4241
   94TF     N9820273   3.765   2.083   2.317 -0.7827 -0.1976 -0.0503
   94TF     S9920274   3.869   2.117   2.208  0.0221  0.0347 -0.2215
   94TF    O91020275   3.830   2.071   2.072  0.4679  0.5974 -0.2015
   94TF    O91120276   4.008   2.095   2.242  0.0343 -0.2163 -0.6330
   94TF     C9Z20277   3.858   2.301   2.205  0.8784 -0.1965 -0.1919
   94TF    F91320278   3.734   2.339   2.228 -0.2684  0.4157 -0.0515
   94TF    F91420279   3.927   2.360   2.298 -0.2258 -0.5403 -0.0789
   94TF    F91520280   3.895   2.353   2.090  0.5335  0.1903  0.7107
   95TF     S9120281   6.012   5.448   4.737  0.0707  0.1918  0.0258
   95TF     O9220282   5.955   5.403   4.611  0.4773 -0.1234  0.4175
   95TF     O9320283   6.138   5.382   4.766  0.0538  0.1378  0.6079
   95TF     C9Z20284   6.061   5.622   4.706  0.2085 -0.0697  0.8233
   95TF     F9520285   6.162   5.638   4.615 -0.4226  0.0677 -0.3918
   95TF     F9620286   6.097   5.687   4.811 -0.3322  0.3975 -0.5634
   95TF     F9720287   5.959   5.690   4.659  0.4448  0.5252  0.4191
   95TF     N9820288   5.911   5.448   4.853 -0.4351 -0.1573  0.0954
   95TF     S9920289   5.932   5.393   5.002 -0.0240  0.1742  0.0722
   95TF    O91020290   6.055   5.327   5.031  0.5499 -0.0594  0.0155
   95TF    O91120291   5.811   5.332   5.054 -0.4370 -0.6286 -0.5887
   95TF     C9Z20292   5.951   5.556   5.100 -1.4469  0.0080  0.0105
   95TF    F91320293   5.969   5.519   5.226 -0.4604 -0.0947 -0.2838
   95TF    F91420294   6.064   5.613   5.065 -0.1557  0.1261  0.4169
   95TF    F91520295   5.870   5.662   5.109 -0.1469 -0.0433 -0.1078
   96TF     S9120296   3.003   2.570   2.927  0.1304 -0.1777 -0.2234
   96TF     O9220297   3.124   2.518   2.879 -0.7328  0.2587  0.2579
   96TF     O9320298   2.902   2.470   2.943 -0.5980 -0.2226  0.0374
   96TF     C9Z20299   3.041   2.632   3.087  0.1630 -0.1435 -0.0421
   96TF     F9520300   2.937   2.675   3.163 -0.1430 -0.2646  0.2931
   96TF     F9620301   3.116   2.734   3.069  0.0874 -0.0899  0.0061
   96TF     F9720302   3.110   2.552   3.168  0.2430 -0.3733  0.5624
   96TF     N9820303   2.961   2.700   2.854 -0.3061  0.1484  0.5723
   96TF     S9920304   2.815   2.741   2.810  0.1010 -0.0418 -0.4398
   96TF    O91020305   2.762   2.843   2.900 -0.4694  0.1877  0.7465
   96TF    O91120306   2.725   2.632   2.763  0.1620 -0.2015  0.0868
   96TF     C9Z20307   2.853   2.835   2.648 -0.7860  0.0757 -0.1835
   96TF    F91320308   2.894   2.750   2.559  0.9499  0.1632 -0.0089
   96TF    F91420309   2.746   2.889   2.602 -0.1522  0.4168  0.3627
   96TF    F91520310   2.947   2.932   2.646  0.7217  0.0710 -0.2389
   97TF     S9120311   3.295   4.462   2.562 -0.1942 -0.0197  0.0120
   97TF     O9220312   3.210   4.453   2.680 -0.1884  0.0067  0.2192
   97TF     O9320313   3.379   4.576   2.544 -0.1328  0.1341  0.4421
   97TF     C9Z20314   3.409   4.324   2.577 -0.1203  0.2239 -0.1052
   97TF     F9520315   3.355   4.211   2.621 -0.1673  0.3357 -0.5869
   97TF     F9620316   3.502   4.353   2.661 -0.4857 -0.1448  0.1828
   97TF     F9720317   3.469   4.295   2.461 -0.2038  0.0963  0.2658
   97TF     N9820318   3.216   4.430   2.431 -0.2164  0.3374  0.4245
   97TF     S9920319   3.062   4.447   2.429 -0.2852 -0.1064 -0.0863
   97TF    O91020320   3.017   4.578   2.471  0.0851  0.3147  0.4587
   97TF    O91120321   2.987   4.341   2.488  0.1598  0.0386 -0.5226
   97TF     C9Z20322   3.013   4.449   2.250  1.3469  0.1145  0.7376
   97TF    F91320323   2.884   4.491   2.235  0.0922 -0.4644  0.3031
   97TF    F91420324   3.094   4.535   2.185 -0.6357 -0.3107 -0.4603
   97TF    F91520325   3.021   4.331   2.185  0.0484 -0.7266  0.1121
   98TF     S9120326   2.175   6.617   6.689 -0.2910 -0.2456 -0.3950
   98TF     O9220327   2.194   6.726   6.785 -0.0019  0.6306 -0.3772
   98TF     O9320328   2.036   6.570   6.675  0.1294  0.0767 -0.0462
   98TF     C9Z20329   2.222   6.684   6.518  0.2674 -0.3964  0.4399
   98TF     F9520330   2.335   6.746   6.515 -0.2858 -0.1220 -0.1534
   98TF     F9620331   2.131   6.773   6.470  0.4126 -0.0736 -0.3738
   98TF     F9720332   2.230   6.587   6.426  0.1141 -0.0433  0.8245
   98TF     N9820333   2.284   6.502   6.712  0.0522 -0.1317  0.1284
   98TF     S9920334   2.404   6.513   6.818 -0.0711  0.0513 -0.1117
   98TF    O91020335   2.367   6.462   6.947  0.1199  0.6361 -0.2374
   98TF    O91120336   2.465   6.647   6.808  0.6529 -0.2740 -0.2503
   98TF     C9Z20337   2.529   6.396   6.753  0.3016  0.3563  0.3555
   98TF    F91320338   2.652   6.415   6.791  0.5268  0.0837 -0.1176
   98TF    F91420339   2.490   6.269   6.778  0.5610 -0.0804 -0.2708
   98TF    F91520340   2.537   6.398   6.617 -0.0785  0.2949  0.1887
   99TF     S9120341   4.970   5.571   5.017 -0.5583 -0.2715 -0.7191
   99TF     O9220342   4.836   5.523   5.056  0.0515 -0.2504  0.2042
   99TF     O9320343   4.981   5.591   4.877 -0.2881 -0.5282  0.0322
   99TF     C9Z20344   4.979   5.745   5.096 -0.3034 -0.3618 -0.4199
   99TF     F9520345   4.964   5.751   5.226 -0.7399  0.0317 -0.3116
   99TF     F9620346   4.896   5.834   5.043  0.0583 -0.0226 -0.6851
   99TF     F9720347   5.097   5.802   5.075  0.2002 -0.2093  0.2605
   99TF     N9820348   5.085   5.493   5.087  0.0479 -0.2222 -0.3160
   99TF     S9920349   5.222   5.461   5.019  0.1293  0.0342  0.0874
   99TF    O91020350   5.333   5.543   5.070  0.0776  0.4085  0.6188
   99TF    O91120351   5.218   5.433   4.878 -0.1129 -0.2909 -0.1489
   99TF     C9Z20352   5.260   5.294   5.086 -0.4787  0.2155  0.0867
   99TF    F91320353   5.382   5.250   5.069  0.2252  0.3148  0.4279
   99TF    F91420354   5.244   5.285   5.218  0.3206  0.6219  0.9150
   99TF    F91520355   5.174   5.201   5.033 -0.2354  0.1634  0.6039
  100TF     S9120356   4.527   1.608   6.795 -0.1769  0.2910  0.1693
  100TF     O9220357   4.534   1.488   6.710 -0.4909 -0.2144  0.0782
  100TF     O9320358   4.436   1.715   6.761 -0.1165 -0.0132  0.0661
  100TF     C9Z20359   4.451   1.550   6.944  0.6010  0.0308  0.6171
  100TF     F9520360   4.433   1.639   7.040 -0.1074 -0.3282 -0.3248
  100TF     F9620361   4.518   1.450   6.999  0.1486  0.1763  0.0683
  100TF     F9720362   4.329   1.505   6.920 -0.1729  0.1756  1.3746
  100TF     N9820363   4.668   1.661   6.837 -0.0564  0.0685 -0.3596
  100TF     S9920364   4.764   1.725   6.735  0.2739  0.1059  0.4115
  100TF    O91020365   4.696   1.763   6.613  0.2092  0.1601 -0.5627
  100TF    O91120366   4.887   1.656   6.728  0.4818 -0.5184 -0.0393
  100TF     C9Z20367   4.801   1.887   6.831 -0.0832 -0.1558 -0.5454
  100TF    F91320368   4.875   1.968   6.755 -0.8307  0.2118  0.2158
  100TF    F91420369   4.692   1.951   6.853  1.0291  0.1154  0.0919
  100TF    F91520370   4.848   1.893   6.956 -0.3202  0.4092 -0.3791
  101TF     S9120371   3.515   4.658   5.222  0.0336  0.2222  0.0889
  101TF     O9220372   3.537   4.683   5.083 -0.2134  0.6488  0.1159
  101TF     O9320373   3.452   4.764   5.302 -0.2604  0.4769 -0.6806
  101TF     C9Z20374   3.393   4.527   5.240  0.0119 -0.0037  0.3155
  101TF     F9520375   3.446   4.413   5.205 -0.0213 -0.1904 -0.4587
  101TF     F9620376   3.279   4.544   5.179 -0.0658  0.1086 -0.5747
  101TF     F9720377   3.367   4.514   5.364  0.5554 -0.3195 -0.5051
  101TF     N9820378   3.640   4.596   5.285  0.4381 -0.0614  0.0434
  101TF     S9920379   3.777   4.658   5.257 -0.3783 -0.0496 -0.5677
  101TF    O91020380   3.791   4.792   5.291 -0.3203  0.5767 -0.4116
  101TF    O91120381   3.830   4.618   5.127  0.0586  0.0390 -0.2445
  101TF     C9Z20382   3.876   4.569   5.389  0.3445 -0.1570  0.4842
  101TF    F91320383   4.001   4.618   5.385  0.0499 -0.0365  0.0493
  101TF    F91420384   3.842   4.609   5.510 -0.1957  0.3314  0.1355
  101TF    F91520385   3.884   4.439   5.397  0.5110  0.5618  0.4626
  102TF     S9120386   6.189   4.580   5.046 -0.5446 -0.2588  0.5827
  102TF     O9220387   6.057   4.560   4.994 -0.0596 -0.1166 -0.4625
  102TF     O9320388   6.227   4.711   5.098 -0.0300  0.4474 -0.0635
  102TF     C9Z20389   6.195   4.483   5.202 -0.7045  0.7129 -0.4311
  102TF     F9520390   6.097   4.512   5.287 -0.0769 -0.4544  0.3324
  102TF     F9620391   6.303   4.514   5.274 -0.1238 -0.1969  0.1051
  102TF     F9720392   6.178   4.355   5.181 -0.0265  0.6020  0.1926
  102TF     N9820393   6.300   4.519   4.956  0.3252  0.1945  0.2139
  102TF     S9920394   6.307   4.535   4.800 -0.2846  0.2743 -0.0748
  102TF    O91020395   6.246   4.659   4.756  0.0380 -0.3865  0.4270
  102TF    O91120396   6.281   4.413   4.730  0.3150 -0.4638 -0.3190
  102TF     C9Z20397   6.490   4.560   4.760 -0.1045  0.3891 -0.5902
  102TF    F91320398   6.520   4.574   4.631  0.5681  0.1857 -0.0098
  102TF    F91420399   6.527   4.672   4.816 -0.4360 -0.4012  0.8219
  102TF    F91520400   6.584   4.481   4.804 -0.1379 -0.0878  0.3972
  103TF     S9120401   2.272   1.172   3.102  0.3644  1.1697 -0.0863
  103TF     O9220402   2.299   1.183   2.962 -0.2130 -0.4723 -0.0162
  103TF     O9320403   2.218   1.051   3.157 -0.2415  0.7875 -0.8438
  103TF     C9Z20404   2.438   1.182   3.191  0.3757 -0.2822  0.0266
  103TF     F9520405   2.491   1.300   3.160 -0.3640 -0.3455 -0.4166
  103TF     F9620406   2.515   1.086   3.149  0.0154 -0.3674  0.2891
  103TF     F9720407   2.439   1.185   3.321 -0.8487  0.3388 -0.2322
  103TF     N9820408   2.201   1.304   3.156 -0.1474  0.5684  0.1458
  103TF     S9920409   2.082   1.366   3.077  0.3806 -0.1275 -0.0622
  103TF    O91020410   1.965   1.277   3.065  0.3298 -0.1877 -0.0857
  103TF    O91120411   2.130   1.434   2.954 -0.1038  0.1523  0.2790
  103TF     C9Z20412   2.022   1.505   3.179 -0.3007 -0.2002  0.9858
  103TF    F91320413   1.964   1.463   3.288  0.6306 -0.0477 -0.1520
  103TF    F91420414   2.127   1.577   3.220 -0.3225  0.0051  0.1159
  103TF    F91520415   1.927   1.589   3.136 -0.4276  0.0079 -0.6000
  104TF     S9120416   1.389   0.035   5.729  0.2684 -0.5777  0.2516
  104TF     O9220417   1.313  -0.023   5.619  0.5388 -0.7117 -0.7267
  104TF     O9320418   1.381  -0.034   5.853 -0.0194 -0.1980 -0.3271
  104TF     C9Z20419   1.562   0.026   5.678  0.4047  0.8309  0.2807
  104TF     F9520420   1.604  -0.102   5.651 -0.1075  0.0816  0.0723
  104TF     F9620421   1.643   0.072   5.773 -0.4080 -0.4177  0.0122
  104TF     F9720422   1.590   0.098   5.573  0.0503 -0.0766 -0.3949
  104TF     N9820423   1.373   0.182   5.744 -0.1543 -0.9206 -0.4150
  104TF     S9920424   1.246   0.263   5.728  0.0687  0.1303 -0.2079
  104TF    O91020425   1.131   0.181   5.754 -0.7444 -0.7325 -0.4941
  104TF    O91120426   1.240   0.346   5.609  0.4888 -0.3425 -0.0842
  104TF     C9Z20427   1.250   0.384   5.868  0.1953  0.8332  0.0486
  104TF    F91320428   1.320   0.335   5.966  0.0215 -0.5747 -0.0586
  104TF    F91420429   1.308   0.498   5.832 -0.1627  0.1070 -0.0299
  104TF    F91520430   1.131   0.414   5.922 -0.1443 -0.2861 -0.2553
  105TF     S9120431   3.822   0.809   5.534 -0.3887  0.0781 -0.1159
  105TF     O9220432   3.898   0.919   5.582 -0.6784  0.3393 -0.0131
  105TF     O9320433   3.698   0.777   5.600  0.1054 -0.4604  0.2918
  105TF     C9Z20434   3.765   0.867   5.372  0.1427 -0.4582  0.2177
  105TF     F9520435   3.865   0.906   5.296  0.4921 -0.6790  0.0884
  105TF     F9620436   3.676   0.966   5.382  0.2775 -0.0487 -0.1062
  105TF     F9720437   3.700   0.769   5.307 -0.0111  0.0050  0.2019
  105TF     N9820438   3.911   0.689   5.496  0.4304 -0.2015  0.0849
  105TF     S9920439   3.961   0.588   5.597  0.1248  0.2429 -0.0090
  105TF    O91020440   3.866   0.489   5.628  0.2752 -0.2868 -0.4287
  105TF    O91120441   4.040   0.649   5.704 -0.0560 -0.9067 -0.4907
  105TF     C9Z20442   4.085   0.490   5.493 -0.1780 -0.1223 -0.3629
  105TF    F91320443   4.196   0.556   5.465 -0.1442 -0.3412 -0.7552
  105TF    F91420444   4.132   0.377   5.552 -0.4565  0.2448 -0.0926
  105TF    F91520445   4.041   0.462   5.378  0.3838 -0.3497  0.3068
  106TF     S9120446   5.415   4.236   6.045  0.2323  0.1648  0.2571
  106TF     O9220447   5.397   4.171   6.170 -0.1777 -0.0539  0.4598
  106TF     O9320448   5.503   4.349   6.041  0.8621 -0.1599  0.4417
  106TF     C9Z20449   5.488   4.106   5.925  0.2547  0.3379  0.1776
  106TF     F9520450   5.613   4.093   5.955 -0.0897 -0.1275  0.1233
  106TF     F9620451   5.494   4.139   5.798 -0.0666 -0.2288 -0.2049
  106TF     F9720452   5.436   3.985   5.928  0.1528 -0.6195 -0.6479
  106TF     N9820453   5.268   4.260   5.987  0.4684 -0.4220 -0.1800
  106TF     S9920454   5.169   4.350   6.071  0.3398  0.1852  0.1994
  106TF    O91020455   5.229   4.422   6.183 -0.2198 -0.2265 -0.6925
  106TF    O91120456   5.035   4.298   6.091  0.2975 -0.3083 -0.5449
  106TF     C9Z20457   5.141   4.487   5.947  0.2456  0.3270  0.3830
  106TF    F91320458   5.042   4.566   5.980 -0.2287 -0.3047  0.2702
  106TF    F91420459   5.244   4.569   5.936 -0.5072  0.1519  0.0416
  106TF    F91520460   5.118   4.433   5.827  0.0713 -0.0894  0.3391
  107TF     S9120461   5.278   5.787   3.764  0.1055  0.2769 -0.1199
  107TF     O9220462   5.372   5.892   3.779 -0.0778 -0.5209  0.8026
  107TF     O9320463   5.143   5.800   3.807  0.0487  0.6964 -0.1115
  107TF     C9Z20464   5.246   5.749   3.590  0.1476  0.4431 -0.5379
  107TF     F9520465   5.360   5.725   3.527 -0.0015  0.2866  0.1318
  107TF     F9620466   5.183   5.849   3.530 -0.2457 -0.5252 -0.4076
  107TF     F9720467   5.162   5.646   3.570  0.8354  0.4431  0.2810
  107TF     N9820468   5.335   5.648   3.810 -0.3987  0.3050  0.2128
  107TF     S9920469   5.339   5.595   3.956  0.0354 -0.0928  0.5455
  107TF    O91020470   5.278   5.685   4.052 -0.4239 -0.6952  0.3425
  107TF    O91120471   5.480   5.552   3.975  0.5380  0.5648  0.5018
  107TF     C9Z20472   5.234   5.440   3.953 -0.2475 -0.9355 -0.1666
  107TF    F91320473   5.211   5.397   4.075 -0.2931  0.2573 -0.3698
  107TF    F91420474   5.117   5.478   3.913  0.0225  0.0769  0.2290
  107TF    F91520475   5.248   5.328   3.881 -0.4268 -1.0839  0.0870
  108TF     S9120476   2.514   5.336   3.098  0.2215 -0.1317  0.4736
  108TF     O9220477   2.434   5.379   2.982 -0.1969 -0.1201  0.8056
  108TF     O9320478   2.637   5.406   3.122  0.8616 -0.2192  0.7128
  108TF     C9Z20479   2.399   5.374   3.238 -0.5323  0.1208 -0.0959
  108TF     F9520480   2.274   5.332   3.219  0.0917 -0.2664  0.5109
  108TF     F9620481   2.390   5.498   3.266  0.5750  0.1769 -0.1493
  108TF     F9720482   2.446   5.317   3.346  0.2121 -0.9720 -0.0250
  108TF     N9820483   2.523   5.182   3.102 -0.6159  0.2991 -0.5392
  108TF     S9920484   2.650   5.110   3.049 -0.3690  0.2170 -0.1446
  108TF    O91020485   2.745   5.187   2.970  0.1047  0.4675  0.1091
  108TF    O91120486   2.604   4.984   2.993  0.3654 -0.1589  0.0010
  108TF     C9Z20487   2.735   5.056   3.198 -0.0554  0.6212 -0.2786
  108TF    F91320488   2.664   4.987   3.284 -0.6644 -0.4498  0.2186
  108TF    F91420489   2.838   4.987   3.162  0.5669  0.0587 -0.3885
  108TF    F91520490   2.786   5.159   3.263  0.1868  0.1533 -0.0818
  109TF     S9120491   4.977   4.676   4.144  0.2897 -0.4780 -0.1192
  109TF     O9220492   5.019   4.797   4.217 -0.1073  0.0191 -0.2483
  109TF     O9320493   4.860   4.603   4.189 -0.0805  0.1752  0.1181
  109TF     C9Z20494   4.925   4.743   3.977  0.1519 -0.0223 -0.0611
  109TF     F9520495   4.910   4.650   3.886 -0.2710 -0.4834 -0.2915
  109TF     F9620496   5.008   4.832   3.934  0.6878  0.3472  0.2649
  109TF     F9720497   4.807   4.802   3.986  0.1120 -0.1422 -0.1657
  109TF     N9820498   5.098   4.578   4.102 -0.1013  0.8062  0.1488
  109TF     S9920499   5.174   4.486   4.207  0.2396 -0.0986 -0.2017
  109TF    O91020500   5.170   4.347   4.171 -0.3763 -0.5250  0.2379
  109TF    O91120501   5.132   4.520   4.343 -0.4492  0.3507  0.1506
  109TF     C9Z20502   5.345   4.534   4.180 -0.3116  0.1932  0.0702
  109TF    F91320503   5.430   4.497   4.275  0.6787  0.1464  0.6030
  109TF    F91420504   5.398   4.497   4.066  0.1895  0.7748 -0.0555
  109TF    F91520505   5.355   4.664   4.184 -0.0700 -0.4044  0.3503
  110TF     S9120506   5.649   3.161   1.030  0.3416  0.3055 -0.0899
  110TF     O9220507   5.730   3.135   1.143 -0.3845 -0.1434  0.3219
  110TF     O9320508   5.542   3.070   1.006  0.3772 -0.4635 -1.0645
  110TF     C9Z20509   5.553   3.318   1.039  0.3631 -0.6893  0.1535
  110TF     F9520510   5.486   3.332   0.925  0.3188  1.0247  0.4090
  110TF     F9620511   5.620   3.432   1.052  0.3085  0.5002  0.5028
  110TF     F9720512   5.457   3.303   1.131 -0.0283 -0.2166  0.0983
  110TF     N9820513   5.742   3.174   0.902  0.5145  0.0493 -0.1813
  110TF     S9920514   5.755   3.053   0.803  0.3652  0.1238 -0.3631
  110TF    O91020515   5.730   2.918   0.862  0.0286  0.3619  0.2081
  110TF    O91120516   5.872   3.065   0.722 -0.7607  0.4194  0.1977
  110TF     C9Z20517   5.620   3.094   0.680 -0.2006  0.1485 -0.2962
  110TF    F91320518   5.502   3.089   0.735 -0.0540  0.1900 -0.1499
  110TF    F91420519   5.632   3.218   0.634  0.2374 -0.2022  0.6862
  110TF    F91520520   5.606   3.016   0.577  0.3253  0.4012  0.1259
  111TF     S9120521   6.462   5.432   5.974  0.2443 -0.3054  0.2519
  111TF     O9220522   6.336   5.429   6.044  0.2031 -0.4323 -0.5519
  111TF     O9320523   6.586   5.409   6.043  0.3213  0.5225  0.4045
  111TF     C9Z20524   6.449   5.296   5.852 -0.5436  0.4237  0.5042
  111TF     F9520525   6.393   5.188   5.903 -0.3420  0.0500  0.5455
  111TF     F9620526   6.561   5.252   5.802  0.2574 -0.7607  0.1120
  111TF     F9720527   6.367   5.324   5.748 -0.3275 -0.0484 -0.0870
  111TF     N9820528   6.468   5.558   5.880 -0.0118 -0.5452 -0.3668
  111TF     S9920529   6.473   5.696   5.953 -0.1562  0.1271  0.1665
  111TF    O91020530   6.612   5.740   5.969 -0.2940  0.8458  0.3060
  111TF    O91120531   6.385   5.705   6.069  0.4708 -0.1568 -0.1855
  111TF     C9Z20532   6.411   5.823   5.832 -0.6797  0.7136  0.2201
  111TF    F91320533   6.290   5.792   5.795  1.1898  0.0763  0.2115
  111TF    F91420534   6.402   5.941   5.888 -0.3410  0.1269 -0.5766
  111TF    F91520535   6.479   5.846   5.722 -0.2999  0.8769  0.4266
  112TF     S9120536   6.260   5.945   5.307  0.0957  0.4463  0.1802
  112TF     O9220537   6.303   5.863   5.195  0.0089 -0.4683 -0.3266
  112TF     O9320538   6.128   6.004   5.295  0.8158  0.6690  0.4383
  112TF     C9Z20539   6.255   5.833   5.455  0.5107  0.7470  0.6265
  112TF     F9520540   6.374   5.787   5.492 -0.4156  0.3431  0.2254
  112TF     F9620541   6.186   5.723   5.428  0.4341  0.0238 -0.1546
  112TF     F9720542   6.198   5.894   5.558  0.2070 -0.1445 -0.2643
  112TF     N9820543   6.364   6.048   5.358 -0.4018 -0.2789 -0.0860
  112TF     S9920544   6.505   6.071   5.296 -0.2833 -0.0132 -0.1840
  112TF    O91020545   6.508   6.172   5.190 -0.0596  0.0594 -0.4314
  112TF    O91120546   6.582   5.948   5.270  0.5291 -0.1596 -0.1800
  112TF     C9Z20547   6.593   6.153   5.439 -0.0884 -0.2726  0.4291
  112TF    F91320548   6.609   6.062   5.538 -0.6060 -0.4842  0.1742
  112TF    F91420549   6.718   6.193   5.406  0.1690 -0.6827 -0.2301
  112TF    F91520550   6.522   6.246   5.490 -0.1664 -0.4998  0.2434
  113TF     S9120551   2.964   4.822   0.190 -0.5772  0.0659  0.1687
  113TF     O9220552   2.853   4.842   0.281  0.9553 -0.1128  0.4614
  113TF     O9320553   2.965   4.903   0.069  0.4779  0.9142 -0.8165
  113TF     C9Z20554   3.112   4.861   0.295  0.5087  0.8896 -0.5154
  113TF     F9520555   3.115   4.981   0.345 -0.1846  0.2796 -0.8318
  113TF     F9620556   3.218   4.846   0.218 -0.0802  0.0656 -0.3838
  113TF     F9720557   3.124   4.777   0.402  0.0901 -0.5183 -0.0656
  113TF     N9820558   3.000   4.671   0.161  0.6718  0.4384  0.2253
  113TF     S9920559   2.893   4.570   0.118 -0.2123 -0.5465  0.0253
  113TF    O91020560   2.938   4.489   0.008  0.2519 -0.3480 -0.0310
  113TF    O91120561   2.755   4.621   0.118 -0.3935 -0.0302  0.0539
  113TF     C9Z20562   2.892   4.458   0.268 -0.5485 -0.0708 -0.7145
  113TF    F91320563   3.003   4.399   0.306  0.0062  0.2573 -0.0730
  113TF    F91420564   2.834   4.507   0.377  0.1960 -0.1320  0.1418
  113TF    F91520565   2.809   4.358   0.235 -0.6495  0.2815 -0.1754
  114TF     S9120566   4.045   6.289   6.459  0.2531  0.1005  0.1142
  114TF     O9220567   3.998   6.343   6.582  0.1732  0.0056 -0.2940
  114TF     O9320568   4.025   6.368   6.342  0.0870 -0.2304 -0.3619
  114TF     C9Z20569   4.232   6.276   6.477  0.1076 -0.2098 -0.0517
  114TF     F9520570   4.265   6.166   6.538  0.1157 -0.1734  0.2169
  114TF     F9620571   4.274   6.379   6.549  0.1340  0.7136  0.2217
  114TF     F9720572   4.310   6.281   6.368 -0.3354 -0.3691 -0.2727
  114TF     N9820573   4.005   6.140   6.433 -0.1015 -0.0603 -0.6396
  114TF     S9920574   3.868   6.087   6.481  0.2109 -0.4684 -0.4145
  114TF    O91020575   3.760   6.180   6.459 -0.4162 -0.0163 -0.3873
  114TF    O91120576   3.883   6.031   6.611 -0.1087 -0.0653 -0.4654
  114TF     C9Z20577   3.821   5.947   6.363 -0.3479  0.1898  0.2173
  114TF    F91320578   3.696   5.946   6.324  0.2172  0.1032 -0.6663
  114TF    F91420579   3.879   5.956   6.243 -0.5186  0.5726 -0.0446
  114TF    F91520580   3.838   5.825   6.407  0.2542 -0.2313  0.1528
  115TF     S9120581   2.262   5.595   1.734  0.0753 -0.1607 -0.1113
  115TF     O9220582   2.322   5.725   1.736  0.0129 -0.0627 -0.5257
  115TF     O9320583   2.139   5.589   1.815  0.2130 -0.3191  0.4161
  115TF     C9Z20584   2.214   5.568   1.556  0.4853  0.0330 -0.5333
  115TF     F9520585   2.136   5.662   1.510 -0.1273 -0.1635  0.3227
  115TF     F9620586   2.160   5.449   1.533  0.0958 -0.4659 -0.1477
  115TF     F9720587   2.320   5.571   1.481  0.3720  0.1121 -0.3960
  115TF     N9820588   2.358   5.476   1.758  0.1691 -0.3809  0.1188
  115TF     S9920589   2.507   5.487   1.776 -0.6018  0.3146 -0.3860
  115TF    O91020590   2.547   5.413   1.895 -0.4410 -0.1796 -0.1680
  115TF    O91120591   2.570   5.611   1.754 -0.2772  0.0448 -0.5644
  115TF     C9Z20592   2.581   5.379   1.635 -0.0376 -0.4224 -0.7126
  115TF    F91320593   2.589   5.456   1.530 -0.1307  0.7399 -0.1169
  115TF    F91420594   2.705   5.345   1.654 -0.5670  0.2713 -0.2360
  115TF    F91520595   2.514   5.269   1.598 -0.5094 -0.1153  0.5040
  116TF     S9120596   4.579   2.942   2.919  0.0999 -0.1482  0.1943
  116TF     O9220597   4.688   2.946   3.011  0.0766  0.0271 -0.1977
  116TF     O9320598   4.500   2.821   2.912 -0.3509 -0.0639  0.5512
  116TF     C9Z20599   4.466   3.067   2.982  0.3341 -0.1945 -0.0714
  116TF     F9520600   4.506   3.192   2.998  0.4095  0.2856  0.2300
  116TF     F9620601   4.403   3.029   3.091  0.4408  0.1405  0.1168
  116TF     F9720602   4.363   3.082   2.898  0.1850  0.0701  0.4595
  116TF     N9820603   4.615   2.992   2.784 -0.1589  0.5127  0.3894
  116TF     S9920604   4.687   2.890   2.688 -0.4603  0.3484 -0.1393
  116TF    O91020605   4.602   2.789   2.638  0.2772  0.5095 -0.3706
  116TF    O91120606   4.814   2.860   2.746 -0.5116 -0.2796 -0.1665
  116TF     C9Z20607   4.732   2.996   2.544 -0.4449  0.1978 -0.0682
  116TF    F91320608   4.823   2.938   2.458  0.0021 -0.0712  0.0438
  116TF    F91420609   4.624   2.998   2.465  0.0313  0.0340  0.7073
  116TF    F91520610   4.770   3.118   2.561 -0.2249 -0.2192  0.1132
  117TF     S9120611   2.069   5.780   4.769 -0.4538 -0.1617 -0.2194
  117TF     O9220612   2.190   5.835   4.714  0.3884 -0.3132  0.0925
  117TF     O9320613   2.018   5.658   4.709  0.3419 -0.4361  0.2332
  117TF     C9Z20614   2.114   5.725   4.936  0.1590  1.2283 -0.3924
  117TF     F9520615   2.008   5.725   5.015  0.4300  0.4269 -0.4909
  117TF     F9620616   2.203   5.809   4.990  0.7121 -0.1797 -0.4201
  117TF     F9720617   2.165   5.604   4.931 -0.1234  0.6717  0.4102
  117TF     N9820618   1.960   5.878   4.801 -1.2927  0.3575  0.5621
  117TF     S9920619   1.856   5.920   4.695 -0.1090  0.6416 -0.0198
  117TF    O91020620   1.853   5.845   4.574 -0.2769  0.2143 -0.1056
  117TF    O91120621   1.854   6.065   4.681 -0.7318  0.3159 -0.7160
  117TF     C9Z20622   1.692   5.886   4.763 -0.3617  0.8354 -0.0930
  117TF    F91320623   1.685   5.759   4.810 -0.2559 -0.3324  0.1989
  117TF    F91420624   1.670   5.956   4.870  0.7344 -0.3049  0.3347
  117TF    F91520625   1.582   5.905   4.692  0.0393  0.0956 -0.0760
  118TF     S9120626   2.767   3.604   6.212  0.2189 -0.2583  0.3846
  118TF     O9220627   2.650   3.592   6.131  0.5802 -0.0415 -0.3159
  118TF     O9320628   2.835   3.482   6.248  0.5988  0.0291 -0.2529
  118TF     C9Z20629   2.891   3.685   6.102  0.7258  0.4795 -0.4517
  118TF     F9520630   2.870   3.817   6.078  0.3214 -0.2488  0.5205
  118TF     F9620631   2.909   3.631   5.986 -0.3744  0.0024  0.4542
  118TF     F9720632   3.011   3.669   6.159 -0.1023  0.0010  0.6327
  118TF     N9820633   2.754   3.701   6.331 -0.2592  0.1666  0.4072
  118TF     S9920634   2.702   3.652   6.469 -0.3250 -0.3414  0.1275
  118TF    O91020635   2.632   3.527   6.449  0.7665  0.1130  0.0618
  118TF    O91120636   2.645   3.761   6.541  0.8556 -0.3451  0.2068
  118TF     C9Z20637   2.854   3.599   6.563 -0.6807 -0.1257  0.2567
  118TF    F91320638   2.815   3.549   6.679 -0.1398  0.3270  0.4452
  118TF    F91420639   2.912   3.499   6.504 -0.3217  0.2351  0.2777
  118TF    F91520640   2.952   3.685   6.592  0.6057 -0.0565  0.0760
  119TF     S9120641   2.162   6.062   6.600 -0.2308 -0.2660  0.1721
  119TF     O9220642   2.041   6.009   6.545  0.2260  0.3866  0.2867
  119TF     O9320643   2.276   5.974   6.598 -0.6255  0.1295  0.0670
  119TF     C9Z20644   2.211   6.211   6.496 -0.4637 -0.4280  0.2524
  119TF     F9520645   2.336   6.250   6.508  0.0396 -0.0444  0.0936
  119TF     F9620646   2.123   6.310   6.510 -0.5684  0.0227  1.1306
  119TF     F9720647   2.202   6.171   6.369  0.0630 -0.0265 -0.0385
  119TF     N9820648   2.139   6.125   6.736  0.3554 -0.2282 -0.1782
  119TF     S9920649   2.068   6.050   6.856 -0.0178  0.0742  0.1024
  119TF    O91020650   2.077   5.905   6.846 -0.5210  0.6005  0.1703
  119TF    O91120651   1.939   6.115   6.882 -0.3376  0.3855 -0.2085
  119TF     C9Z20652   2.164   6.094   7.007  0.1922 -0.2113  0.1714
  119TF    F91320653   2.199   6.222   7.004 -0.1411  0.1895 -0.1513
  119TF    F91420654   2.099   6.081   7.122 -0.1123  0.0946  0.3150
  119TF    F91520655   2.281   6.033   7.008 -0.7340  0.3104  0.0330
  120TF     S9120656   2.218   6.503   3.609 -0.0965  0.0475 -0.0364
  120TF     O9220657   2.314   6.404   3.643  0.3645 -0.2586 -0.2310
  120TF     O9320658   2.268   6.637   3.585  0.0021  0.0190  0.3091
  120TF     C9Z20659   2.136   6.454   3.444 -0.4761 -0.5173  0.4911
  120TF     F9520660   2.045   6.550   3.407 -0.2408  0.1100 -0.0274
  120TF     F9620661   2.069   6.336   3.442 -0.7735  0.2158  0.1324
  120TF     F9720662   2.220   6.452   3.344  0.2663 -0.0565  0.6635
  120TF     N9820663   2.090   6.504   3.705  0.3296  0.6382  0.1885
  120TF     S9920664   2.120   6.534   3.852 -0.5323 -0.0249 -0.0478
  120TF    O91020665   2.113   6.674   3.881  0.3366 -0.3503  0.1653
  120TF    O91120666   2.227   6.462   3.917  0.0568 -0.3941 -0.1855
  120TF     C9Z20667   1.970   6.469   3.931 -0.5404  0.5693  0.2439
  120TF    F91320668   1.998   6.449   4.058  0.7114 -0.5720 -0.3943
  120TF    F91420669   1.872   6.551   3.922  0.2566 -0.0330  0.0387
  120TF    F91520670   1.927   6.352   3.892  0.1715  0.4488  0.1672
  121TF     S9120671   5.249   0.571   6.111  0.1796  0.2123  0.3148
  121TF     O9220672   5.377   0.542   6.172 -0.1727  0.0557 -0.2384
  121TF     O9320673   5.243   0.639   5.982 -0.4022  0.0281 -0.0683
  121TF     C9Z20674   5.189   0.399   6.074 -0.9520  0.0511  0.3818
  121TF     F9520675   5.186   0.304   6.169 -0.2266  0.6267  0.4667
  121TF     F9620676   5.247   0.342   5.967  0.0673  0.1657  0.0652
  121TF     F9720677   5.062   0.402   6.035 -0.1140 -0.2291  0.3534
  121TF     N9820678   5.137   0.623   6.203  0.7174 -0.1910 -0.4624
  121TF     S9920679   5.124   0.776   6.225  0.5481  0.5179 -0.1524
  121TF    O91020680   5.007   0.827   6.153  0.4167 -0.2383  0.2764
  121TF    O91120681   5.250   0.844   6.223  0.3225 -0.1234  0.3900
  121TF     C9Z20682   5.082   0.776   6.410  0.6720 -0.4648  0.0642
  121TF    F91320683   5.173   0.718   6.484  0.1036  0.1645 -0.0209
  121TF    F91420684   5.081   0.903   6.457  0.3347 -0.1585  0.1033
  121TF    F91520685   4.960   0.726   6.438  0.3530  0.1801  0.1250
  122TF     S9120686   2.313   3.289   4.930  0.3293 -0.1379  0.3679
  122TF     O9220687   2.392   3.370   4.842 -0.5990 -0.0709 -0.2951
  122TF     O9320688   2.208   3.212   4.874  0.2310  0.4184  0.0756
  122TF     C9Z20689   2.425   3.157   4.990  0.4399  0.1285 -0.5347
  122TF     F9520690   2.518   3.194   5.073 -0.6496  0.1329  0.0307
  122TF     F9620691   2.491   3.101   4.893 -0.0382 -0.1875  0.6405
  122TF     F9720692   2.366   3.053   5.051  0.2862  0.7882 -0.5038
  122TF     N9820693   2.268   3.353   5.065  0.3010 -0.0186  0.2323
  122TF     S9920694   2.123   3.392   5.104 -0.0897  0.1230 -0.2232
  122TF    O91020695   2.040   3.273   5.140 -0.5173  0.5158  0.3513
  122TF    O91120696   2.062   3.485   5.010  0.7979  0.6541 -0.4190
  122TF     C9Z20697   2.143   3.494   5.252  0.3731  0.2647  0.3135
  122TF    F91320698   2.189   3.429   5.352 -0.1369  0.2352  0.0860
  122TF    F91420699   2.225   3.595   5.228 -0.1382  0.3115  0.4811
  122TF    F91520700   2.022   3.529   5.291  0.3657  0.1193 -0.6162
  123TF     S9120701   0.080   0.449   1.118  0.6585  0.5837  0.4063
  123TF     O9220702   0.027   0.321   1.070  0.2111  0.5677 -0.1491
  123TF     O9320703   0.148   0.452   1.243 -0.0136  0.3676 -0.1412
  123TF     C9Z20704   0.215   0.487   0.994  0.5535  0.1925  0.3176
  123TF     F9520705   0.271   0.612   1.006 -0.0834  0.3685  0.3307
  123TF     F9620706   0.167   0.482   0.874 -0.1320 -0.1364  0.4691
  123TF     F9720707   0.313   0.402   1.005 -0.7105 -0.5172 -0.5932
  123TF     N9820708  -0.012   0.574   1.089 -0.0239 -0.5136 -0.1459
  123TF     S9920709  -0.162   0.586   1.117 -0.7139 -0.6270 -0.1334
  123TF    O91020710  -0.188   0.694   1.209  0.0388 -0.4322 -0.4986
  123TF    O91120711  -0.230   0.462   1.151 -0.6172 -0.7596 -0.4943
  123TF     C9Z20712  -0.238   0.636   0.958 -0.3581  0.3663  0.3312
  123TF    F91320713  -0.184   0.748   0.910 -0.3343  0.1240  0.0927
  123TF    F91420714  -0.220   0.541   0.866  0.0656 -0.0939 -0.0426
  123TF    F91520715  -0.372   0.652   0.964  0.5925 -0.0711 -0.1652
  124TF     S9120716   5.659   1.815   5.826 -0.0209 -0.0121  0.4511
  124TF     O9220717   5.659   1.726   5.710 -0.3405  0.3908 -0.3902
  124TF     O9320718   5.573   1.931   5.811  0.4754 -0.3200  0.2892
  124TF     C9Z20719   5.588   1.722   5.971 -0.1746  0.4852 -0.0153
  124TF     F9520720   5.616   1.786   6.087  0.0082  0.4113 -0.3013
  124TF     F9620721   5.637   1.599   5.982  0.3424 -0.2113  0.4458
  124TF     F9720722   5.456   1.701   5.956  0.2883 -0.1245  0.5209
  124TF     N9820723   5.799   1.848   5.879  0.2312 -0.0191 -0.2666
  124TF     S9920724   5.848   1.992   5.899 -0.0269 -0.4675  0.2996
  124TF    O91020725   5.787   2.049   6.016 -0.0269  0.6609  0.1628
  124TF    O91120726   5.844   2.073   5.781 -0.1544  0.2512 -1.0846
  124TF     C9Z20727   6.031   1.973   5.930 -0.2475  0.1519  0.3589
  124TF    F91320728   6.084   2.083   5.966  0.6761  0.0555 -0.7544
  124TF    F91420729   6.051   1.888   6.027  0.1451 -0.9951 -0.2392
  124TF    F91520730   6.112   1.924   5.841  0.0063 -0.0419  0.1207
  125TF     S9120731   0.750   5.836   3.692  0.4049 -0.0152  0.0298
  125TF     O9220732   0.740   5.841   3.834  0.1046 -0.5805  0.2116
  125TF     O9320733   0.637   5.882   3.613  1.1433 -0.1698  0.1854
  125TF     C9Z20734   0.889   5.958   3.656  0.2658 -0.3067  0.4826
  125TF     F9520735   0.999   5.942   3.728  0.0046  0.4540 -0.2330
  125TF     F9620736   0.840   6.079   3.668 -0.0965  0.5539  0.0041
  125TF     F9720737   0.927   5.944   3.529  0.1066 -0.3814  0.5514
  125TF     N9820738   0.817   5.705   3.626  0.0635  0.0690 -0.4051
  125TF     S9920739   0.784   5.560   3.661 -0.0195 -0.4106 -0.4294
  125TF    O91020740   0.673   5.556   3.757 -0.0375 -0.2451 -0.5022
  125TF    O91120741   0.903   5.487   3.688  0.8532  0.4156  0.3662
  125TF     C9Z20742   0.709   5.492   3.505  0.5842 -0.3022 -0.8070
  125TF    F91320743   0.790   5.483   3.399 -0.1308 -0.2721  0.6510
  125TF    F91420744   0.643   5.378   3.512  0.6127  0.3674  0.2581
  125TF    F91520745   0.623   5.588   3.479 -0.3639  0.1581  0.5129
  126TF     S9120746   6.211   0.612   3.754  0.3516  0.1166  0.4138
  126TF     O9220747   6.207   0.656   3.616  0.4591 -0.1310 -0.0227
  126TF     O9320748   6.342   0.591   3.808 -0.3356  0.4632  0.2003
  126TF     C9Z20749   6.147   0.751   3.853  0.0588  0.3691 -0.6765
  126TF     F9520750   6.131   0.717   3.972  0.2275 -0.2157 -0.3278
  126TF     F9620751   6.029   0.795   3.808  0.5913  0.4591  0.3844
  126TF     F9720752   6.230   0.848   3.865 -0.3149  0.1189  0.3333
  126TF     N9820753   6.117   0.495   3.781  0.1885 -0.1731  0.2956
  126TF     S9920754   6.140   0.394   3.901 -0.1295 -0.1905  0.2004
  126TF    O91020755   6.188   0.462   4.016  0.0199  0.4459 -0.0408
  126TF    O91120756   6.200   0.268   3.866  0.3183  0.0421  0.2153
  126TF     C9Z20757   5.963   0.347   3.946  0.1930  0.2028  0.1113
  126TF    F91320758   5.957   0.267   4.051 -0.5686 -0.2359  0.4197
  126TF    F91420759   5.883   0.450   3.977  0.0521 -0.0597  0.8367
  126TF    F91520760   5.896   0.279   3.859 -0.0031 -0.5225 -0.2253
  127TF     S9120761   5.744   0.331   4.557  0.0175 -0.0380 -0.2781
  127TF     O9220762   5.708   0.225   4.466  0.0020 -0.2628 -0.2705
  127TF     O9320763   5.871   0.388   4.538 -0.2286 -0.1858  0.0588
  127TF     C9Z20764   5.644   0.484   4.525 -0.0469  0.0334 -0.3097
  127TF     F9520765   5.626   0.511   4.394 -0.1132  0.1352  0.1897
  127TF     F9620766   5.687   0.595   4.583  0.3010 -0.0628  0.1287
  127TF     F9720767   5.518   0.465   4.563  0.0441  0.3027 -0.0484
  127TF     N9820768   5.712   0.293   4.703  0.1840  0.0604 -0.1610
  127TF     S9920769   5.616   0.176   4.731 -0.2093 -0.4082  0.0134
  127TF    O91020770   5.681   0.049   4.727  0.4681 -0.0460  0.1758
  127TF    O91120771   5.498   0.186   4.654 -0.2000 -0.4599 -0.0191
  127TF     C9Z20772   5.575   0.199   4.916 -0.5519 -0.5572 -0.3156
  127TF    F91320773   5.677   0.171   4.995 -0.2807  0.0714 -0.5128
  127TF    F91420774   5.535   0.325   4.941 -0.1572 -0.1914 -0.7533
  127TF    F91520775   5.470   0.120   4.952  0.0485  0.1484  0.2700
  128TF     S9120776   1.366   5.125   1.643 -0.0449  0.1471  0.1087
  128TF     O9220777   1.325   5.100   1.506 -0.1439 -0.2271 -0.6263
  128TF     O9320778   1.281   5.101   1.758  0.4580 -0.3560  0.8352
  128TF     C9Z20779   1.514   5.007   1.654  0.1463 -0.7311 -0.0075
  128TF     F9520780   1.628   5.052   1.603  0.1974  0.6810  0.4145
  128TF     F9620781   1.494   4.898   1.575  0.5299 -0.3841 -0.2355
  128TF     F9720782   1.528   4.966   1.781 -0.3165 -0.2520 -0.0523
  128TF     N9820783   1.442   5.261   1.654 -0.3907  0.2685  0.3626
  128TF     S9920784   1.368   5.390   1.654  0.0169  0.0461 -0.1547
  128TF    O91020785   1.226   5.375   1.635 -0.4296 -0.0073  0.5445
  128TF    O91120786   1.424   5.490   1.568 -0.3417  0.5077  0.0207
  128TF     C9Z20787   1.389   5.458   1.824  0.3653  0.3236 -0.5058
  128TF    F91320788   1.336   5.583   1.829  0.2068  0.4667 -0.6529
  128TF    F91420789   1.317   5.385   1.904  0.1559 -0.1854  0.1038
  128TF    F91520790   1.515   5.467   1.872  0.3526  0.2539  0.3222
  129TF     S9120791   1.080   4.892   2.556 -0.0861  0.1872  0.2532
  129TF     O9220792   1.174   4.997   2.545  0.4079  0.1461 -0.3477
  129TF     O9320793   1.105   4.775   2.469  0.0464 -0.3198  0.1295
  129TF     C9Z20794   1.101   4.833   2.727 -0.0823 -0.4427 -0.1623
  129TF     F9520795   1.221   4.793   2.767  0.0101  0.0814  0.5530
  129TF     F9620796   1.022   4.732   2.751 -0.0601  0.5256 -0.0495
  129TF     F9720797   1.058   4.922   2.814 -0.0580 -0.0302  0.2744
  129TF     N9820798   0.933   4.933   2.549  0.2500  0.3060  0.2349
  129TF     S9920799   0.902   5.089   2.560 -0.0702 -0.1805  0.4416
  129TF    O91020800   0.978   5.174   2.471  0.7083  0.2136 -0.1249
  129TF    O91120801   0.869   5.137   2.692  0.2235 -0.0493 -0.2741
  129TF     C9Z20802   0.733   5.098   2.466 -0.8973 -0.2618  0.2537
  129TF    F91320803   0.640   5.022   2.520 -0.0422 -0.2235  0.1230
  129TF    F91420804   0.675   5.216   2.477  0.2346 -0.1393  0.4176
  129TF    F91520805   0.731   5.068   2.333 -0.3543  0.0688 -0.7066
  130TF     S9120806   3.872   2.819   2.471  0.2500  0.6311 -0.2472
  130TF     O9220807   3.744   2.845   2.523 -0.2460 -0.4127  0.0810
  130TF     O9320808   3.933   2.693   2.518  0.2227 -0.3047 -0.5524
  130TF     C9Z20809   3.859   2.806   2.285  0.5818 -0.2542 -0.7509
  130TF     F9520810   3.788   2.711   2.233 -0.2913  0.4371  0.0422
  130TF     F9620811   3.976   2.794   2.226 -0.5385 -0.0015 -0.2549
  130TF     F9720812   3.812   2.915   2.227 -0.1341  0.1860 -0.7276
  130TF     N9820813   3.960   2.943   2.494 -1.1001  0.1354 -0.3622
  130TF     S9920814   4.032   2.956   2.637 -0.3480 -0.2317  0.2274
  130TF    O91020815   4.175   2.981   2.626 -0.3371  0.2239  0.4479
  130TF    O91120816   3.986   2.864   2.735 -0.6280 -0.2401  0.0377
  130TF     C9Z20817   3.966   3.124   2.689 -0.4081 -0.2012  0.7222
  130TF    F91320818   3.859   3.114   2.762  0.0828 -0.2335  0.3147
  130TF    F91420819   4.046   3.197   2.766 -0.7458  0.0910  0.3673
  130TF    F91520820   3.920   3.204   2.593 -0.4210  0.1485 -0.0910
  131TF     S9120821   5.842   5.781   3.911 -0.0719 -0.1826  0.4392
  131TF     O9220822   5.800   5.662   3.980  0.1937  0.6486  0.3507
  131TF     O9320823   5.909   5.772   3.786 -0.1476 -0.6172 -0.1360
  131TF     C9Z20824   5.681   5.852   3.866 -0.2230  0.5075  0.5487
  131TF     F9520825   5.634   5.806   3.750 -0.4910 -0.0726  0.7306
  131TF     F9620826   5.687   5.985   3.857  0.0820 -0.0624  0.2596
  131TF     F9720827   5.583   5.840   3.958 -0.4712 -0.1242  0.5101
  131TF     N9820828   5.900   5.887   4.005  0.2842  0.0447 -0.1833
  131TF     S9920829   6.012   5.859   4.112  0.3395 -0.4232 -0.0726
  131TF    O91020830   6.096   5.970   4.135  0.6062  0.1001 -0.2271
  131TF    O91120831   6.083   5.733   4.092 -0.4584  0.7585 -0.0804
  131TF     C9Z20832   5.921   5.824   4.267  0.3527 -0.7237 -0.7029
  131TF    F91320833   6.006   5.775   4.352 -0.2005 -0.1033 -0.3069
  131TF    F91420834   5.860   5.931   4.322  1.0340  0.4129 -0.1533
  131TF    F91520835   5.833   5.723   4.262 -0.0201 -0.1175  0.2613
  132TF     S9120836   3.832   4.157   5.111  0.0651 -0.2061 -0.2156
  132TF     O9220837   3.790   4.280   5.050 -0.4564 -0.1835  0.0619
  132TF     O9320838   3.950   4.174   5.190 -0.4930  0.0148  0.2840
  132TF     C9Z20839   3.693   4.109   5.233 -0.5523  0.1152 -0.7110
  132TF     F9520840   3.713   3.984   5.263  0.5461 -0.1288 -0.1291
  132TF     F9620841   3.573   4.130   5.178 -0.3712 -0.2263 -0.1475
  132TF     F9720842   3.687   4.183   5.343 -0.5053 -0.1902 -0.2875
  132TF     N9820843   3.853   4.037   5.011  0.2186 -0.1216  0.1718
  132TF     S9920844   3.858   4.034   4.852  0.2120 -0.2760 -0.2828
  132TF    O91020845   3.854   4.162   4.780  0.0054  0.6267 -0.4009
  132TF    O91120846   3.778   3.930   4.788  0.2715 -0.1038 -0.0222
  132TF     C9Z20847   4.038   3.986   4.820 -0.6598  0.2623  0.7131
  132TF    F91320848   4.057   3.970   4.692 -0.5283 -0.2169 -0.3896
  132TF    F91420849   4.104   4.090   4.857 -0.4750 -0.3704  0.3034
  132TF    F91520850   4.108   3.890   4.875  0.2525 -0.8062 -0.0695
  133TF     S9120851   6.269   1.573   0.738 -0.1534 -0.0058  0.0996
  133TF     O9220852   6.196   1.668   0.660 -0.0372 -0.8883  0.3545
  133TF     O9320853   6.270   1.436   0.689  0.0598  0.3273 -0.1449
  133TF     C9Z20854   6.443   1.625   0.733  0.2724 -0.0688  0.3483
  133TF     F9520855   6.460   1.754   0.746 -0.2070 -0.0098  0.5480
  133TF     F9620856   6.506   1.585   0.621 -0.3727  0.1453  0.0388
  133TF     F9720857   6.508   1.568   0.835 -0.5017 -0.3912  0.3482
  133TF     N9820858   6.235   1.590   0.885 -0.3802 -0.4905 -0.1751
  133TF     S9920859   6.126   1.502   0.950  0.2960  0.1808  0.2874
  133TF    O91020860   6.132   1.360   0.928 -0.2463  0.3904 -0.1320
  133TF    O91120861   5.995   1.567   0.942  0.3603  0.3119 -0.0117
  133TF     C9Z20862   6.168   1.517   1.137  0.3587  0.0589 -0.4199
  133TF    F91320863   6.172   1.638   1.180 -0.5298  0.2048  0.0784
  133TF    F91420864   6.078   1.452   1.220 -0.3180 -0.1687  0.2979
  133TF    F91520865   6.285   1.468   1.158 -0.0254 -0.0666 -0.4879
  134TF     S9120866   5.851   0.459   2.948 -0.3826  0.3158 -0.0162
  134TF     O9220867   5.852   0.320   2.912  0.4875  1.1035 -0.2059
  134TF     O9320868   5.888   0.502   3.078 -0.4625 -0.2498 -0.3071
  134TF     C9Z20869   5.971   0.536   2.834  0.4365 -0.3934  0.7603
  134TF     F9520870   5.928   0.535   2.709  0.2861  0.4827 -0.2137
  134TF     F9620871   6.087   0.473   2.833  0.2395  0.4067  0.1078
  134TF     F9720872   5.992   0.666   2.854 -0.1920 -0.3373  0.0727
  134TF     N9820873   5.721   0.525   2.898 -0.0181  0.2274 -0.0839
  134TF     S9920874   5.636   0.620   2.992  0.1319 -0.0784 -0.1055
  134TF    O91020875   5.718   0.714   3.059 -0.3506 -0.1201 -0.1720
  134TF    O91120876   5.538   0.551   3.075 -0.0231 -0.6861  0.5070
  134TF     C9Z20877   5.527   0.712   2.873  0.1940 -0.8484 -0.2867
  134TF    F91320878   5.451   0.799   2.934  0.0186  0.4339 -0.5922
  134TF    F91420879   5.605   0.776   2.776  0.0314  0.4339 -0.4463
  134TF    F91520880   5.447   0.626   2.818  0.1132 -0.5725 -0.4841
  135TF     S9120881   5.139   6.859   0.318  0.1632  0.2061 -0.4899
  135TF     O9220882   5.091   6.868   0.459 -0.0203 -0.1854  0.3336
  135TF     O9320883   5.163   6.982   0.247 -0.2717 -0.1550  0.0465
  135TF     C9Z20884   5.302   6.773   0.325 -0.1418 -0.5512 -0.2346
  135TF     F9520885   5.391   6.846   0.402  0.2583 -0.1350 -0.2811
  135TF     F9620886   5.351   6.755   0.205  0.1015  0.9252  0.1700
  135TF     F9720887   5.306   6.652   0.378  0.6636  0.1610 -0.2225
  135TF     N9820888   5.048   6.758   0.253  0.7269  0.2591 -0.2725
  135TF     S9920889   4.919   6.793   0.176  0.5115  0.2230  0.2873
  135TF    O91020890   4.891   6.932   0.180 -0.5404 -0.0268  0.1568
  135TF    O91120891   4.816   6.698   0.210 -0.0842 -0.4381 -0.0466
  135TF     C9Z20892   4.967   6.755   0.003  0.0619  0.3457 -0.2761
  135TF    F91320893   5.075   6.815  -0.038 -0.0958  0.3605 -0.2899
  135TF    F91420894   4.976   6.629  -0.019 -0.3931  0.3469  0.1232
  135TF    F91520895   4.877   6.808  -0.068 -0.1264 -0.0290 -0.3142
  136TF     S9120896   1.622   5.021   2.134  0.1127  0.4284 -0.0121
  136TF     O9220897   1.585   4.905   2.055  0.1850  0.1531  0.1106
  136TF     O9320898   1.763   5.049   2.142 -0.0913 -0.8590  0.0019
  136TF     C9Z20899   1.555   5.165   2.038  0.1868  0.2821 -0.6233
  136TF     F9520900   1.434   5.131   1.997 -0.0859  0.0451  0.0881
  136TF     F9620901   1.621   5.201   1.927 -0.0068  0.0704 -0.1400
  136TF     F9720902   1.545   5.278   2.109  0.2815 -0.1220 -0.2022
  136TF     N9820903   1.548   5.024   2.270  0.3685  0.2051 -0.1302
  136TF     S9920904   1.542   4.896   2.360 -0.1063  0.3466  0.2878
  136TF    O91020905   1.645   4.799   2.312  0.5358 -0.1918  0.6994
  136TF    O91120906   1.408   4.842   2.377 -0.8461 -0.0593  0.6323
  136TF     C9Z20907   1.594   4.953   2.530 -0.2565 -0.2364  0.4936
  136TF    F91320908   1.506   5.031   2.586  0.0731 -0.0327 -0.1831
  136TF    F91420909   1.611   4.855   2.618  0.1207  0.1206  0.0497
  136TF    F91520910   1.708   5.017   2.519  0.1208  0.0860  0.4494
  137TF     S9120911   3.045   5.914   3.605  0.3506 -0.3400  0.0553
  137TF     O9220912   2.919   5.961   3.650 -0.0253  0.1996 -0.4139
  137TF     O9320913   3.067   5.772   3.602 -0.6132  0.2635  0.2474
  137TF     C9Z20914   3.058   5.975   3.428  0.0679 -0.9049  0.1426
  137TF     F9520915   2.975   5.911   3.342 -0.2135 -0.3537  0.4941
  137TF     F9620916   3.178   5.961   3.378 -0.0581 -0.5897 -0.2891
  137TF     F9720917   3.030   6.106   3.417 -1.1599  0.0705 -0.0402
  137TF     N9820918   3.168   5.981   3.663  0.2770 -0.0363  0.4235
  137TF     S9920919   3.159   6.033   3.810 -0.0398 -0.0759 -0.4541
  137TF    O91020920   3.107   5.924   3.894  0.2340 -0.2504 -0.3558
  137TF    O91120921   3.097   6.163   3.825  0.5293 -0.5587  0.6215
  137TF     C9Z20922   3.336   6.053   3.853  0.5016  0.1077  0.0232
  137TF    F91320923   3.361   6.096   3.976  0.5454 -0.2731  0.1836
  137TF    F91420924   3.411   5.943   3.835  0.1823 -0.1342 -0.5799
  137TF    F91520925   3.397   6.143   3.779  0.1747 -0.5056 -0.1020
  138TF     S9120926   1.847   3.194   6.297 -0.1931  0.0703  0.0386
  138TF     O9220927   1.771   3.301   6.249  0.1294 -0.1582 -0.4750
  138TF     O9320928   1.917   3.213   6.421  0.2765 -0.1306 -0.1289
  138TF     C9Z20929   1.714   3.070   6.322  0.5862  0.5475  0.2954
  138TF     F9520930   1.638   3.061   6.209  0.6727  0.3335  0.0095
  138TF     F9620931   1.622   3.089   6.418 -0.5317  0.6848  0.3382
  138TF     F9720932   1.763   2.946   6.336 -0.1989 -0.3014 -0.3500
  138TF     N9820933   1.939   3.132   6.188 -1.0124  1.2242  0.9506
  138TF     S9920934   2.068   3.199   6.142  0.2328  0.1063 -0.5557
  138TF    O91020935   2.107   3.316   6.214 -0.8252  0.2686 -0.1137
  138TF    O91120936   2.071   3.211   5.996 -0.0254 -0.5314  0.0752
  138TF     C9Z20937   2.205   3.072   6.171 -0.1090  1.2338 -0.6670
  138TF    F91320938   2.318   3.141   6.140 -0.9210  0.1746 -0.5738
  138TF    F91420939   2.212   3.029   6.298 -0.4672  0.1487 -0.6862
  138TF    F91520940   2.220   2.965   6.099 -0.3685  0.2718 -0.4666
  139TF     S9120941   5.612   5.898   6.408  0.0259 -0.3912 -0.2603
  139TF     O9220942   5.687   5.997   6.478  0.2468 -0.1154  0.4348
  139TF     O9320943   5.648   5.759   6.432  0.3515 -0.0984 -0.0639
  139TF     C9Z20944   5.437   5.916   6.469  0.8682  0.4057  0.0399
  139TF     F9520945   5.383   6.032   6.426 -0.1342 -0.2608  0.6492
  139TF     F9620946   5.432   5.912   6.606  0.0962 -0.0934  0.0563
  139TF     F9720947   5.349   5.823   6.427 -0.3610  0.0789 -0.0768
  139TF     N9820948   5.594   5.927   6.261  0.2254  0.2034  0.3661
  139TF     S9920949   5.631   6.068   6.203  0.1322 -0.3062  0.4019
  139TF    O91020950   5.769   6.069   6.165 -0.7012 -0.2899 -1.0703
  139TF    O91120951   5.579   6.180   6.279  0.4767 -0.4052  0.3270
  139TF     C9Z20952   5.530   6.075   6.046 -0.6759  0.2744  0.3853
  139TF    F91320953   5.400   6.065   6.078  0.0803  0.0716  0.0410
  139TF    F91420954   5.553   6.192   5.990 -0.3405  0.2143  0.5235
  139TF    F91520955   5.548   5.981   5.952  0.3071 -0.1364 -0.2923
  140TF     S9120956   0.649   1.117   1.698  0.0240 -0.0733 -0.0300
  140TF     O9220957   0.679   1.002   1.782 -0.1682 -0.6129 -0.0199
  140TF     O9320958   0.759   1.173   1.627  0.0297  0.2709  0.2039
  140TF     C9Z20959   0.536   1.050   1.566  0.2485 -0.0996 -0.8854
  140TF     F9520960   0.607   0.961   1.500 -0.2334  0.1627  0.2353
  140TF     F9620961   0.485   1.136   1.481 -0.3813 -0.4010  0.5153
  140TF     F9720962   0.435   0.985   1.613 -0.2751  0.0908 -0.0719
  140TF     N9820963   0.560   1.227   1.765  0.4029 -0.3745  1.0173
  140TF     S9920964   0.549   1.249   1.915 -0.2149  0.5062 -0.2727
  140TF    O91020965   0.679   1.254   1.985  0.3229 -0.3461  0.3916
  140TF    O91120966   0.446   1.167   1.966  0.1283  0.1304  0.1081
  140TF     C9Z20967   0.475   1.419   1.920  0.0991 -0.7765  0.1914
  140TF    F91320968   0.555   1.506   1.864  0.0725 -0.4311  0.4082
  140TF    F91420969   0.355   1.431   1.861  0.2444 -0.0298  0.3454
  140TF    F91520970   0.461   1.455   2.048 -0.1058  0.3672  0.3165
  141TF     S9120971   1.547   1.397   5.066  0.0529  0.0911 -0.4390
  141TF     O9220972   1.543   1.431   4.923 -0.3886  0.0770 -0.0779
  141TF     O9320973   1.646   1.298   5.103  0.2227  0.4600  0.1617
  141TF     C9Z20974   1.602   1.558   5.145  0.1937 -0.8708  0.2945
  141TF     F9520975   1.709   1.607   5.086  0.1068 -0.4035  0.4964
  141TF     F9620976   1.628   1.543   5.277  0.4125 -0.1846  0.4333
  141TF     F9720977   1.502   1.640   5.136  0.0535 -0.1493 -0.0474
  141TF     N9820978   1.404   1.374   5.114 -0.0169  0.2590 -0.0430
  141TF     S9920979   1.371   1.304   5.248 -0.0945  0.0307 -0.3254
  141TF    O91020980   1.484   1.271   5.335 -0.6907  1.1571  0.0121
  141TF    O91120981   1.267   1.206   5.230 -0.2997  0.4345 -0.1083
  141TF     C9Z20982   1.283   1.445   5.352 -0.0985 -0.1308 -0.4826
  141TF    F91320983   1.371   1.523   5.421  0.2225 -0.4684  0.0205
  141TF    F91420984   1.211   1.522   5.282 -0.0663 -0.0577  0.2812
  141TF    F91520985   1.218   1.374   5.439 -0.4970 -0.1370  0.3648
  142TF     S9120986   5.904   0.828   1.882  0.2592  0.1203  0.3098
  142TF     O9220987   6.023   0.784   1.812  0.2833  0.1688  0.0590
  142TF     O9320988   5.828   0.940   1.826 -0.1183  0.3660 -0.0260
  142TF     C9Z20989   5.793   0.674   1.897  1.0953  0.5341 -0.4365
  142TF     F9520990   5.682   0.699   1.967 -0.0725 -0.0675  0.0155
  142TF     F9620991   5.857   0.579   1.965  0.0182  0.1952  0.0487
  142TF     F9720992   5.754   0.622   1.782  0.2739  0.0265  0.2304
  142TF     N9820993   5.940   0.852   2.027  0.8614  0.1244 -0.1066
  142TF     S9920994   5.993   0.992   2.072 -0.2131 -0.6612 -0.0009
  142TF    O91020995   5.891   1.060   2.153 -0.6187  0.0218  0.4518
  142TF    O91120996   6.052   1.078   1.972 -0.6977 -0.1982  0.4806
  142TF     C9Z20997   6.127   0.941   2.187  1.1061  0.1659 -0.1231
  142TF    F91320998   6.103   0.839   2.262 -0.4217 -0.4738 -0.0150
  142TF    F91420999   6.236   0.904   2.120  0.2094  0.1647 -0.8361
  142TF    F91521000   6.163   1.044   2.263 -0.1920 -0.0012  0.8346
  143TF     S9121001   0.972   4.219   1.140  0.3375 -0.1996  0.0095
  143TF     O9221002   0.957   4.323   1.238 -0.0157 -0.2107 -0.2239
  143TF     O9321003   0.869   4.120   1.137  0.0142 -0.1830  0.4346
  143TF     C9Z21004   0.953   4.304   0.982  0.3770  0.4706 -0.1779
  143TF     F9521005   0.827   4.368   0.971 -0.1219  0.1568  0.2593
  143TF     F9621006   0.946   4.232   0.875  0.4094  0.8271 -0.1401
  143TF     F9721007   1.044   4.394   0.961 -0.1309 -0.3647 -0.5232
  143TF     N9821008   1.114   4.155   1.132  0.0575 -0.3622 -0.9412
  143TF     S9921009   1.166   4.066   1.255  0.0778 -0.4689 -0.4497
  143TF    O91021010   1.089   4.090   1.374  0.1402 -0.1925  0.2496
  143TF    O91121011   1.312   4.076   1.267  0.5024  0.0789  0.5200
  143TF     C9Z21012   1.135   3.892   1.203 -0.1669 -0.1028  0.0699
  143TF    F91321013   1.181   3.872   1.081  0.2413  0.1237  0.0579
  143TF    F91421014   1.198   3.800   1.279 -0.6428  0.3774  0.2307
  143TF    F91521015   1.011   3.851   1.207  0.0365  0.2620  0.2667
  144TF     S9121016   4.725   2.854   1.696  0.1960 -0.0183  0.1199
  144TF     O9221017   4.756   2.934   1.577 -0.0555  0.1781 -0.1412
  144TF     O9321018   4.627   2.917   1.781  0.3836 -0.3293  1.2521
  144TF     C9Z21019   4.638   2.699   1.645 -0.4087 -0.0162  0.4268
  144TF     F9521020   4.632   2.603   1.737 -0.3337 -0.0098  0.7102
  144TF     F9621021   4.698   2.643   1.537 -0.2102  0.1816 -0.2230
  144TF     F9721022   4.513   2.729   1.615  0.2042  0.2449  0.6378
  144TF     N9821023   4.843   2.806   1.788  0.6650  0.1930  0.8351
  144TF     S9921024   4.927   2.914   1.855 -0.1108 -0.1629 -0.0846
  144TF    O91021025   4.881   2.930   1.989 -0.4893  0.0751  0.5584
  144TF    O91121026   4.940   3.043   1.783 -0.4002  0.4101  0.0823
  144TF     C9Z21027   5.098   2.845   1.860 -0.3728  0.4102  0.0659
  144TF    F91321028   5.194   2.922   1.900  0.4741 -0.1075 -0.4137
  144TF    F91421029   5.112   2.722   1.903 -0.0492 -0.2618  0.7006
  144TF    F91521030   5.119   2.827   1.729  0.9831 -0.1947  0.4235
  145TF     S9121031   0.775   4.017   4.784  0.4293  0.0332 -0.2626
  145TF     O9221032   0.656   3.935   4.803 -0.5769  0.6747 -0.4382
  145TF     O9321033   0.777   4.144   4.851 -0.0797  0.0901 -0.1385
  145TF     C9Z21034   0.895   3.920   4.878  0.7973  0.2529  1.0424
  145TF     F9521035   0.855   3.910   5.008 -0.3160  0.5631  0.3859
  145TF     F9621036   1.010   3.984   4.873  0.0691 -0.5096  0.7133
  145TF     F9721037   0.919   3.800   4.832 -0.0980  0.2647  0.5757
  145TF     N9821038   0.830   4.015   4.637  0.0701 -0.0466 -0.6948
  145TF     S9921039   0.768   3.932   4.522  0.3522 -0.2239 -0.1661
  145TF    O91021040   0.635   3.975   4.490  0.2193  0.1105  0.0750
  145TF    O91121041   0.804   3.793   4.531 -0.6352 -0.1206  0.2500
  145TF     C9Z21042   0.865   3.988   4.385 -0.1754 -0.0628  0.6231
  145TF    F91321043   0.853   4.119   4.364  0.2697  0.1397  0.0682
  145TF    F91421044   0.989   3.955   4.389 -0.0710  0.3509 -0.1034
  145TF    F91521045   0.822   3.931   4.271  0.2778  0.2570  0.4517
  146TF     S9121046   1.138   0.243   1.565 -0.1038  0.1150  0.6357
  146TF     O9221047   1.085   0.246   1.701 -0.5907  0.8755 -0.2946
  146TF     O9321048   1.174   0.114   1.504  0.0419 -0.0875  0.1888
  146TF     C9Z21049   1.010   0.317   1.454  0.5712 -0.1813  0.4799
  146TF     F9521050   1.054   0.369   1.341  0.1758  0.3959 -0.1927
  146TF     F9621051   0.963   0.422   1.521  0.6770  0.0063 -0.2017
  146TF     F9721052   0.902   0.245   1.427 -0.2054  0.5838 -0.4437
  146TF     N9821053   1.255   0.344   1.551 -0.1743 -0.2378  0.3566
  146TF     S9921054   1.399   0.324   1.607  0.0451 -0.1144 -0.1790
  146TF    O91021055   1.394   0.218   1.706  0.7468 -0.4490  0.5548
  146TF    O91121056   1.470   0.441   1.646 -0.4593  0.2604 -0.2319
  146TF     C9Z21057   1.489   0.252   1.470 -0.0812  0.0097 -0.3753
  146TF    F91321058   1.612   0.221   1.512 -0.3457  0.2120 -0.2187
  146TF    F91421059   1.432   0.148   1.413 -0.1082  0.4170 -0.1608
  146TF    F91521060   1.488   0.340   1.376 -0.0452 -0.1160 -0.4319
  147TF     S9121061   4.052   3.721   1.415  0.1567  0.1330  0.1786
  147TF     O9221062   3.921   3.786   1.437  0.4836  0.3419  0.1730
  147TF     O9321063   4.048   3.575   1.394  0.2810 -0.0562  0.3960
  147TF     C9Z21064   4.106   3.790   1.250 -0.2507 -0.4250  0.3535
  147TF     F9521065   4.226   3.752   1.207 -0.2100  0.3853 -0.1532
  147TF     F9621066   4.104   3.922   1.244 -0.1634 -0.1540  0.1791
  147TF     F9721067   4.023   3.761   1.152  0.3890  0.6121  0.0587
  147TF     N9821068   4.162   3.764   1.522  0.0149  0.1256  0.0693
  147TF     S9921069   4.262   3.660   1.570  0.2287  0.3622  0.2438
  147TF    O91021070   4.356   3.622   1.467  0.2150 -0.1564 -0.9805
  147TF    O91121071   4.211   3.560   1.656  0.3625  0.5724  0.7557
  147TF     C9Z21072   4.372   3.771   1.689  0.1537  0.4462  0.8586
  147TF    F91321073   4.302   3.789   1.803 -0.1876  0.0636 -0.2570
  147TF    F91421074   4.474   3.701   1.730 -0.3701  0.2773  0.0200
  147TF    F91521075   4.423   3.886   1.647 -0.0528  0.2053 -0.2283
  148TF     S9121076   3.018   1.532   3.463  0.1070  0.1652  0.0559
  148TF     O9221077   2.920   1.615   3.396 -0.0877  0.0835 -0.9039
  148TF     O9321078   3.153   1.574   3.441 -0.0448  0.1153  0.0129
  148TF     C9Z21079   2.997   1.547   3.648 -0.3566 -0.6108 -0.1636
  148TF     F9521080   2.991   1.672   3.696  0.2651  0.0488 -0.0391
  148TF     F9621081   3.088   1.488   3.716  0.3168  0.2184  0.3335
  148TF     F9721082   2.874   1.504   3.688 -0.3167 -0.1839 -0.2722
  148TF     N9821083   2.991   1.385   3.437  0.2173 -0.3961  0.4234
  148TF     S9921084   2.880   1.334   3.344  0.1936  0.5097 -0.3657
  148TF    O91021085   2.915   1.346   3.206  1.0672 -0.3417 -0.0073
  148TF    O91121086   2.743   1.375   3.381  0.1184 -0.3072  0.1854
  148TF     C9Z21087   2.876   1.147   3.379  0.1724  0.2798  0.5406
  148TF    F91321088   2.973   1.076   3.322  0.1802  0.5332  0.2336
  148TF    F91421089   2.887   1.134   3.512 -0.6918  0.3766  0.2456
  148TF    F91521090   2.757   1.089   3.347  0.4295 -0.3613  0.4729
  149TF     S9121091   5.780   3.732   2.696 -0.0938 -0.7021 -0.1182
  149TF     O9221092   5.707   3.761   2.575 -0.2808  0.2607 -0.7661
  149TF     O9321093   5.712   3.724   2.820 -0.5375 -0.1111  0.3543
  149TF     C9Z21094   5.856   3.571   2.673  0.7403  0.1483  0.3529
  149TF     F9521095   5.770   3.470   2.663  0.1487  0.5114  0.0772
  149TF     F9621096   5.939   3.537   2.770 -0.3668 -0.0488  0.1807
  149TF     F9721097   5.934   3.562   2.567 -0.0745 -0.0219 -0.5505
  149TF     N9821098   5.908   3.812   2.697 -0.3373 -0.0401 -0.6372
  149TF     S9921099   5.951   3.897   2.824 -0.2010  0.3327  0.3996
  149TF    O91021100   6.021   3.819   2.925 -0.4708  0.0229 -0.0040
  149TF    O91121101   5.845   3.985   2.869  0.2418  0.2967  1.1145
  149TF     C9Z21102   6.071   4.020   2.761  0.0344  0.0410 -0.0016
  149TF    F91321103   6.129   4.073   2.867  0.1274 -0.1362 -0.5173
  149TF    F91421104   6.172   3.950   2.703  0.7683 -0.1567 -0.4109
  149TF    F91521105   6.039   4.116   2.676  0.2672  0.5763 -0.0654
  150TF     S9121106   5.378   0.919   1.978  0.3354 -0.4979 -0.0396
  150TF     O9221107   5.241   0.972   1.946 -0.1197  0.6704 -0.1360
  150TF     O9321108   5.441   0.838   1.879  0.3452 -0.2949  0.4757
  150TF     C9Z21109   5.478   1.071   2.005 -0.8071 -0.0741 -0.1494
  150TF     F9521110   5.606   1.043   2.025 -0.0110 -0.3046 -0.4260
  150TF     F9621111   5.438   1.140   2.106 -0.3196 -0.2490  0.0071
  150TF     F9721112   5.484   1.149   1.893  0.2918  0.9132 -0.4101
  150TF     N9821113   5.390   0.850   2.115 -0.1372  0.9050 -0.1853
  150TF     S9921114   5.298   0.729   2.160  0.0822 -0.3912  0.0815
  150TF    O91021115   5.379   0.608   2.184  0.1416  0.1962  0.9253
  150TF    O91121116   5.182   0.715   2.078 -0.0434 -0.2300 -0.7536
  150TF     C9Z21117   5.229   0.788   2.323  0.1318 -0.9002  0.2457
  150TF    F91321118   5.164   0.690   2.392  0.1164 -0.2366  0.0054
  150TF    F91421119   5.321   0.831   2.412 -0.0763  0.2394 -0.3830
  150TF    F91521120   5.132   0.884   2.320  0.0338 -0.2015 -0.1150
  151TF     S9121121   6.484   3.760   5.012 -0.0748 -0.3217  0.2288
  151TF     O9221122   6.555   3.806   5.133  0.0641  0.3405 -0.1526
  151TF     O9321123   6.531   3.645   4.948  0.0855 -0.0373  0.2893
  151TF     C9Z21124   6.312   3.717   5.063 -0.4693  0.3387 -0.0056
  151TF     F9521125   6.252   3.635   4.979 -0.1315 -0.4905  0.0132
  151TF     F9621126   6.229   3.824   5.071 -0.5944  0.0082 -0.2026
  151TF     F9721127   6.304   3.649   5.177 -0.1386 -0.0530 -0.1071
  151TF     N9821128   6.454   3.871   4.910 -0.4700 -0.7732 -0.0751
  151TF     S9921129   6.556   3.894   4.794 -0.1671  0.7062 -0.3100
  151TF    O91021130   6.518   3.828   4.673  0.2905  0.0756 -0.3746
  151TF    O91121131   6.693   3.877   4.837 -0.3319  0.2735  0.2244
  151TF     C9Z21132   6.535   4.072   4.755 -0.6998  0.3720  0.3807
  151TF    F91321133   6.413   4.113   4.743 -0.4912  0.6835 -0.1677
  151TF    F91421134   6.593   4.148   4.851  0.2049 -0.2683  0.3550
  151TF    F91521135   6.599   4.119   4.646  0.2322 -0.5543  0.3670
  152TF     S9121136   1.190   3.888   3.619  0.7368  0.1811  0.2342
  152TF     O9221137   1.143   3.756   3.581 -0.1192  0.0438  0.3368
  152TF     O9321138   1.087   3.969   3.676  0.0155 -0.2748 -0.5784
  152TF     C9Z21139   1.308   3.867   3.759  0.1452  0.3890  0.7534
  152TF     F9521140   1.253   3.805   3.863  0.4475  0.1329 -0.0032
  152TF     F9621141   1.347   3.983   3.804  0.4393 -0.3503 -0.1679
  152TF     F9721142   1.418   3.801   3.733  0.2390 -0.5403 -1.0776
  152TF     N9821143   1.277   3.972   3.518 -0.1492 -0.2871 -0.7097
  152TF     S9921144   1.216   4.041   3.391  0.3182 -0.4333 -0.5449
  152TF    O91021145   1.305   4.139   3.329  0.4848  0.1917  0.1582
  152TF    O91121146   1.078   4.084   3.412 -0.4083 -0.2724  0.3727
  152TF     C9Z21147   1.211   3.905   3.266 -0.4446 -0.5356 -0.4573
  152TF    F91321148   1.161   3.947   3.148 -0.5876  0.5254 -0.0597
  152TF    F91421149   1.334   3.861   3.244 -0.3438 -0.1098  0.0991
  152TF    F91521150   1.143   3.805   3.309 -0.7680 -0.2211 -0.3663
  153TF     S9121151   4.489   5.771   4.953  0.1886 -0.1464  0.1849
  153TF     O9221152   4.444   5.803   5.087 -0.3677  0.2330 -0.1666
  153TF     O9321153   4.633   5.760   4.945 -0.0271  0.7955  0.4952
  153TF     C9Z21154   4.428   5.602   4.923 -0.1630  0.6057 -0.6538
  153TF     F9521155   4.313   5.578   4.982  0.1615  0.1324  0.1167
  153TF     F9621156   4.513   5.508   4.960  0.3220 -0.1025  0.4283
  153TF     F9721157   4.407   5.570   4.795  0.5001 -0.1622 -0.1187
  153TF     N9821158   4.422   5.854   4.840 -0.2081 -0.3868 -0.4118
  153TF     S9921159   4.278   5.913   4.861  0.1689 -0.4128  0.5271
  153TF    O91021160   4.278   6.012   4.964 -0.2530 -0.4831 -0.0955
  153TF    O91121161   4.168   5.816   4.854 -0.2266 -0.2092  0.2319
  153TF     C9Z21162   4.254   6.033   4.720 -0.2605 -0.7805  0.4487
  153TF    F91321163   4.322   6.147   4.726  0.4635 -0.7585 -0.0740
  153TF    F91421164   4.280   5.986   4.602 -0.1945  0.2966 -0.4598
  153TF    F91521165   4.130   6.071   4.697 -0.7194 -0.2932  0.0289
  154TF     S9121166   3.983   4.615   2.080  0.3086  0.0924 -0.0103
  154TF     O9221167   4.089   4.546   2.153 -0.7357  0.1698 -0.3449
  154TF     O9321168   4.026   4.741   2.020  0.6164  0.3269 -0.2376
  154TF     C9Z21169   3.947   4.516   1.930 -1.0060  0.3123  0.4060
  154TF     F9521170   3.913   4.390   1.958 -0.3242  0.1623  0.5328
  154TF     F9621171   4.049   4.510   1.842 -0.7939  0.0144 -0.1466
  154TF     F9721172   3.848   4.569   1.858 -0.2213 -0.1632  0.3085
  154TF     N9821173   3.848   4.621   2.154 -0.5594 -0.4424  0.1865
  154TF     S9921174   3.793   4.755   2.215 -0.1239 -0.2052  0.0583
  154TF    O91021175   3.664   4.790   2.163 -0.0807  0.4160 -0.3240
  154TF    O91121176   3.893   4.856   2.232 -0.5402 -0.1149 -0.3472
  154TF     C9Z21177   3.763   4.702   2.396  0.9387 -0.3294 -0.4484
  154TF    F91321178   3.677   4.783   2.461 -0.4852  0.1686  0.1364
  154TF    F91421179   3.716   4.578   2.391  0.0040  0.0579 -0.0038
  154TF    F91521180   3.872   4.697   2.468  0.0260 -0.3730  0.1724
  155TF     S9121181   6.689   4.439   4.132 -0.5631 -0.0182 -0.5797
  155TF     O9221182   6.656   4.341   4.030 -0.5528  0.1812 -0.1005
  155TF     O9321183   6.598   4.551   4.149 -0.2232 -0.5010  0.3406
  155TF     C9Z21184   6.682   4.348   4.295  0.2504  0.1543 -0.0466
  155TF     F9521185   6.699   4.419   4.406 -0.4449  0.5896  0.3167
  155TF     F9621186   6.774   4.256   4.314  0.4145  0.3176 -0.0610
  155TF     F9721187   6.566   4.298   4.322  0.4062  0.3939  0.3299
  155TF     N9821188   6.839   4.490   4.120  0.0040  0.9261  0.1390
  155TF     S9921189   6.891   4.560   3.991  0.1400  0.0654  0.4893
  155TF    O91021190   6.994   4.657   4.012  0.4949 -0.3487 -0.0579
  155TF    O91121191   6.782   4.596   3.904 -0.1200 -0.3420  0.1710
  155TF     C9Z21192   6.977   4.428   3.886  0.1235 -0.0152 -0.7014
  155TF    F91321193   6.915   4.310   3.894 -0.2318 -0.1598 -0.4344
  155TF    F91421194   6.980   4.457   3.758  0.3504 -0.1162 -0.5996
  155TF    F91521195   7.103   4.402   3.913  0.6858 -0.1379  0.1802
  156TF     S9121196   5.577   4.847   4.614  0.5049 -0.2094 -0.2006
  156TF     O9221197   5.548   4.880   4.753 -0.2092  0.0945  0.0337
  156TF     O9321198   5.709   4.880   4.563 -0.1149 -0.0822 -0.1848
  156TF     C9Z21199   5.556   4.662   4.586 -0.2952 -0.2398  0.1060
  156TF     F9521200   5.430   4.621   4.601 -0.6394  0.2365  0.3349
  156TF     F9621201   5.625   4.579   4.662  0.1756  0.1306  0.2632
  156TF     F9721202   5.596   4.631   4.463 -0.0400 -0.1259 -0.9234
  156TF     N9821203   5.477   4.909   4.515  0.2617 -0.0184 -0.0296
  156TF     S9921204   5.336   4.954   4.563  0.2999 -0.4125 -0.2730
  156TF    O91021205   5.344   5.076   4.641  0.2604 -0.3270  0.0658
  156TF    O91121206   5.239   4.850   4.601 -0.0145 -0.1730  0.4033
  156TF     C9Z21207   5.268   5.017   4.403  0.0186 -0.3599  0.4567
  156TF    F91321208   5.284   4.940   4.301 -0.1588 -0.4859 -0.0636
  156TF    F91421209   5.143   5.052   4.413  0.5261 -0.5174 -0.0313
  156TF    F91521210   5.339   5.127   4.370  0.3426  0.4440  0.4621
  157TF     S9121211   5.482   0.886   3.392  0.2256 -0.2226  0.3134
  157TF     O9221212   5.500   0.952   3.517 -0.2405 -0.1997  0.2776
  157TF     O9321213   5.490   0.743   3.396  0.4788  0.0428 -0.3193
  157TF     C9Z21214   5.311   0.915   3.330  0.9519 -0.0027  0.5830
  157TF     F9521215   5.219   0.875   3.417 -0.6400  0.2388 -0.1592
  157TF     F9621216   5.289   0.847   3.219  0.3210 -0.3272 -0.4699
  157TF     F9721217   5.276   1.038   3.309  0.6630 -0.4943  0.2325
  157TF     N9821218   5.573   0.931   3.273 -0.2313  0.2875 -0.1939
  157TF     S9921219   5.635   1.078   3.259  0.5212  0.4394  0.5533
  157TF    O91021220   5.777   1.087   3.281  0.0774  0.2716 -0.1658
  157TF    O91121221   5.548   1.179   3.324 -0.4752  0.0807  0.1477
  157TF     C9Z21222   5.617   1.112   3.081  0.1491 -0.1401  0.4562
  157TF    F91321223   5.494   1.105   3.039  0.4396 -0.0498 -0.1833
  157TF    F91421224   5.660   1.235   3.063 -0.0053  0.6372  0.3972
  157TF    F91521225   5.691   1.039   2.994  0.3686  0.1811  0.1848
  158TF     S9121226   0.506   2.288   6.829  0.2615  0.2858  0.1208
  158TF     O9221227   0.586   2.189   6.763  0.1056 -0.0938  0.4646
  158TF     O9321228   0.554   2.348   6.952  0.1772  0.3828  0.0241
  158TF     C9Z21229   0.511   2.425   6.709 -0.2769  0.6510  0.1527
  158TF     F9521230   0.493   2.384   6.585 -0.1692 -0.4563 -0.6544
  158TF     F9621231   0.626   2.489   6.711  0.3946 -0.6199  0.0991
  158TF     F9721232   0.418   2.514   6.740 -0.0511 -0.3224  0.3994
  158TF     N9821233   0.359   2.244   6.836 -0.2425  0.1309 -0.5427
  158TF     S9921234   0.324   2.118   6.921  0.0369  0.6864 -0.1911
  158TF    O91021235   0.351   2.130   7.058  0.1579  0.2959  0.5525
  158TF    O91121236   0.370   1.996   6.858 -0.2621 -0.3364  0.1057
  158TF     C9Z21237   0.133   2.113   6.913 -0.2256  0.5668  0.5106
  158TF    F91321238   0.088   2.006   6.969 -0.4793  0.2806 -0.1930
  158TF    F91421239   0.083   2.221   6.974 -0.0493 -0.1158  0.3811
  158TF    F91521240   0.088   2.116   6.789  0.2108 -0.1665 -0.8803
  159TF     S9121241   1.428   2.379   0.975  0.3032 -0.4443  0.1175
  159TF     O9221242   1.520   2.340   0.868  0.3384 -0.3312  0.2095
  159TF     O9321243   1.378   2.280   1.059  0.8854  0.7589  0.0731
  159TF     C9Z21244   1.534   2.474   1.092 -0.0879 -0.0131 -0.0898
  159TF     F9521245   1.526   2.601   1.063 -0.2299 -0.1634  0.2144
  159TF     F9621246   1.663   2.445   1.092 -0.4448  0.2727 -0.1825
  159TF     F9721247   1.495   2.463   1.216 -0.1730  0.0379  0.4733
  159TF     N9821248   1.313   2.471   0.929  0.3985  0.4716 -0.0871
  159TF     S9921249   1.260   2.472   0.783  0.1545  0.1521 -0.0593
  159TF    O91021250   1.117   2.477   0.784  0.2419  0.1046 -0.3418
  159TF    O91121251   1.316   2.390   0.679 -0.5276  0.2499 -0.0247
  159TF     C9Z21252   1.306   2.638   0.736  0.6550  0.3822 -0.4245
  159TF    F91321253   1.272   2.658   0.609  0.6905  0.4949 -0.0655
  159TF    F91421254   1.244   2.729   0.806  0.1430  0.3423  0.3154
  159TF    F91521255   1.434   2.673   0.747  0.1808 -0.0899 -0.7118
  160TF     S9121256   2.078   4.550   0.268  0.4412 -0.1721 -0.2758
  160TF     O9221257   2.086   4.693   0.295  0.0089  0.8236 -0.3369
  160TF     O9321258   2.027   4.460   0.370 -0.1862  0.4153 -0.2143
  160TF     C9Z21259   1.960   4.544   0.134  0.6866 -0.4639  0.1364
  160TF     F9521260   1.844   4.590   0.172 -0.4301 -0.5944 -1.1715
  160TF     F9621261   1.925   4.426   0.092  0.0569  0.1750  0.2028
  160TF     F9721262   1.997   4.621   0.026  1.0429 -0.0155  0.3578
  160TF     N9821263   2.209   4.493   0.202  0.3738 -0.0480  1.1819
  160TF     S9921264   2.330   4.445   0.283 -0.0873 -0.2537  0.2103
  160TF    O91021265   2.284   4.319   0.340 -0.3546 -0.0247 -0.7639
  160TF    O91121266   2.389   4.544   0.368 -0.0133 -1.1596 -0.4049
  160TF     C9Z21267   2.451   4.388   0.146  1.1474 -0.2671 -0.6676
  160TF    F91321268   2.488   4.495   0.079 -0.9226  0.0286 -0.1212
  160TF    F91421269   2.562   4.344   0.213  0.4503 -0.6254 -0.3009
  160TF    F91521270   2.429   4.299   0.043  0.5212  0.1853  0.1909
  161TF     S9121271   2.099   1.674   4.080 -0.5553 -0.1538 -0.4504
  161TF     O9221272   2.230   1.628   4.085  0.0074 -0.2317 -0.4347
  161TF     O9321273   2.007   1.642   4.183 -0.6180 -0.2306 -0.3479
  161TF     C9Z21274   2.102   1.860   4.100  0.1561  0.3447 -0.1256
  161TF     F9521275   1.987   1.920   4.089 -0.1460 -0.1242  0.4457
  161TF     F9621276   2.182   1.912   4.008  0.0977  0.6707 -0.2412
  161TF     F9721277   2.136   1.902   4.218 -0.5245 -0.1368  0.0989
  161TF     N9821278   2.023   1.669   3.942  0.7207  0.4037 -0.4555
  161TF     S9921279   2.072   1.579   3.824  0.3665 -0.0223 -0.0825
  161TF    O91021280   2.117   1.452   3.871  0.4404 -0.5279  0.3495
  161TF    O91121281   2.155   1.639   3.719 -0.3035  0.3384 -0.4422
  161TF     C9Z21282   1.912   1.536   3.744  0.7379  0.4058 -0.8818
  161TF    F91321283   1.841   1.645   3.711 -0.1312  0.3472 -0.2104
  161TF    F91421284   1.923   1.453   3.645  0.3282  0.1283  0.3391
  161TF    F91521285   1.841   1.461   3.838 -0.3501 -0.0852  0.5593
  162TF     S9121286   2.059   0.139   3.200  0.3844 -0.2439  0.3143
  162TF     O9221287   2.161   0.214   3.260  0.3388 -0.0199 -0.0475
  162TF     O9321288   1.962   0.206   3.115 -0.0595  0.3725 -0.3262
  162TF     C9Z21289   2.145   0.029   3.079 -0.2641 -0.1092 -0.2936
  162TF     F9521290   2.247  -0.045   3.129  0.0577  0.2907  0.0303
  162TF     F9621291   2.197   0.099   2.976 -0.0308 -0.1712  0.6997
  162TF     F9721292   2.057  -0.059   3.018  0.0547 -0.1092 -0.3253
  162TF     N9821293   1.992   0.040   3.299 -0.3819  0.4785  0.3738
  162TF     S9921294   1.976   0.071   3.448  0.1434 -0.2716  0.1196
  162TF    O91021295   1.932   0.207   3.484  0.3649 -0.3363  0.0560
  162TF    O91121296   2.070   0.010   3.534 -0.1954 -0.0552  0.0925
  162TF     C9Z21297   1.819  -0.031   3.476  0.1134 -0.5428 -0.4013
  162TF    F91321298   1.768  -0.008   3.595  0.3825  0.2353  0.0717
  162TF    F91421299   1.723  -0.007   3.391 -0.3263  0.3067 -0.0243
  162TF    F91521300   1.829  -0.162   3.482  0.5674  0.0824  0.0526
  163TF     S9121301   4.985   0.149   0.857  0.1579 -0.1019  0.5116
  163TF     O9221302   4.888   0.091   0.766 -0.1134 -0.2654  0.2224
  163TF     O9321303   5.121   0.170   0.804 -0.1636 -0.0735 -0.2851
  163TF     C9Z21304   4.909   0.311   0.902  0.2163  0.7305 -0.0278
  163TF     F9521305   4.807   0.300   0.987  0.3275 -0.0402  0.2920
  163TF     F9621306   4.854   0.372   0.805 -0.0588  0.5492 -0.2604
  163TF     F9721307   4.985   0.396   0.967 -0.4380 -0.0200  0.2373
  163TF     N9821308   4.985   0.071   0.989  0.3174 -0.4753  0.1060
  163TF     S9921309   5.070   0.119   1.114  0.0163  0.1970  0.4206
  163TF    O91021310   4.986   0.144   1.226  0.3621 -0.4662 -0.7825
  163TF    O91121311   5.171   0.217   1.084 -0.2184 -0.0392 -0.0646
  163TF     C9Z21312   5.171  -0.042   1.152  0.2053  0.4651  0.1369
  163TF    F91321313   5.287  -0.060   1.086  0.0231  0.6790  0.5032
  163TF    F91421314   5.198  -0.052   1.280 -0.6564 -0.3493  0.1562
  163TF    F91521315   5.099  -0.147   1.116 -0.4755 -0.8699 -0.2469
  164TF     S9121316   0.167   5.522   3.613  0.2051  0.0224 -0.1991
  164TF     O9221317   0.136   5.387   3.660 -0.0768 -0.3256 -0.5337
  164TF     O9321318   0.282   5.587   3.678  0.3804  0.0513 -0.3286
  164TF     C9Z21319   0.226   5.503   3.439  0.7280 -0.2797 -0.0350
  164TF     F9521320   0.315   5.408   3.434 -0.0486 -0.3591  0.1679
  164TF     F9621321   0.285   5.612   3.392  0.0153 -0.1539  0.0702
  164TF     F9721322   0.130   5.480   3.358 -0.3762 -0.5668 -0.1803
  164TF     N9821323   0.043   5.611   3.593  0.1922  0.3964 -0.8710
  164TF     S9921324  -0.077   5.598   3.692 -0.0609 -0.0658 -0.0177
  164TF    O91021325  -0.063   5.510   3.800  0.1510  0.1947 -0.0371
  164TF    O91121326  -0.200   5.585   3.618  0.0845 -0.9109  0.2561
  164TF     C9Z21327  -0.090   5.777   3.757  0.5196 -0.0349 -0.4412
  164TF    F91321328   0.006   5.810   3.846 -0.5483  1.2028  0.0061
  164TF    F91421329  -0.100   5.874   3.669 -0.1133 -0.1802 -0.0314
  164TF    F91521330  -0.201   5.787   3.832  0.2435  0.0035 -0.2469
  165TF     S9121331   3.652   1.019   4.471 -0.3279  0.4395  0.1163
  165TF     O9221332   3.588   1.131   4.525 -0.3182 -0.2930  0.6188
  165TF     O9321333   3.796   1.035   4.439  0.2011 -0.0416  0.0538
  165TF     C9Z21334   3.656   0.895   4.603  0.0331  1.0566  0.2538
  165TF     F9521335   3.532   0.856   4.638  0.0362  0.5934 -0.4555
  165TF     F9621336   3.713   0.949   4.710  0.0775 -0.4878 -0.5561
  165TF     F9721337   3.727   0.784   4.577  0.1704 -0.0960  0.9345
  165TF     N9821338   3.570   0.950   4.350 -0.0138 -0.0178  0.1062
  165TF     S9921339   3.461   1.021   4.266 -0.6824  0.4724  0.2247
  165TF    O91021340   3.487   1.159   4.236  0.2548 -0.3004 -0.2736
  165TF    O91121341   3.330   0.976   4.304 -0.4456 -0.1690  0.1299
  165TF     C9Z21342   3.492   0.941   4.098  0.1670 -0.5764 -0.6801
  165TF    F91321343   3.619   0.955   4.057 -0.1101  0.0463 -0.3054
  165TF    F91421344   3.470   0.808   4.106  0.5707 -0.7292  0.5071
  165TF    F91521345   3.413   0.988   3.999 -0.1923 -0.3139 -0.3113
  166TF     S9121346   4.418   4.090   4.365 -0.2175  0.2316 -0.1593
  166TF     O9221347   4.538   4.022   4.413 -0.6804 -0.3582  0.2049
  166TF     O9321348   4.409   4.180   4.252 -0.0962 -0.5079  0.1726
  166TF     C9Z21349   4.316   3.938   4.317 -0.3546  0.0894 -0.0690
  166TF     F9521350   4.385   3.861   4.225 -0.1096  0.0963 -0.0796
  166TF     F9621351   4.199   3.963   4.268 -0.0911 -0.2480  0.4157
  166TF     F9721352   4.301   3.851   4.422  0.3333  0.0416 -0.1089
  166TF     N9821353   4.342   4.142   4.486 -0.0796  0.2877 -0.4062
  166TF     S9921354   4.391   4.265   4.567 -0.0078  0.2541 -0.9076
  166TF    O91021355   4.283   4.351   4.611  0.1110 -0.1039  0.0982
  166TF    O91121356   4.506   4.324   4.506 -0.1842 -0.2623  0.4403
  166TF     C9Z21357   4.457   4.196   4.730 -1.0253  0.6903 -0.0169
  166TF    F91321358   4.362   4.120   4.781 -0.8524 -0.4162  0.4152
  166TF    F91421359   4.568   4.121   4.714 -0.1169  0.1893  0.7330
  166TF    F91521360   4.478   4.287   4.817  0.1675 -0.0616  0.0458
  167TF     S9121361   0.925   4.632   0.524 -0.1292 -0.1185 -0.6430
  167TF     O9221362   0.814   4.692   0.589 -0.3820 -0.3393  0.7093
  167TF     O9321363   1.056   4.647   0.586  0.2036 -0.5774 -0.1495
  167TF     C9Z21364   0.883   4.458   0.534  0.5179 -0.8365 -0.0265
  167TF     F9521365   0.971   4.373   0.479 -0.1039  0.1703 -0.1510
  167TF     F9621366   0.775   4.444   0.458  0.6379 -0.5920  0.6537
  167TF     F9721367   0.860   4.410   0.660 -0.1604 -0.0662 -0.3995
  167TF     N9821368   0.914   4.659   0.370 -0.4726  0.1522  1.2748
  167TF     S9921369   1.018   4.729   0.284 -0.2771 -0.3767 -0.2061
  167TF    O91021370   1.150   4.678   0.300 -0.0588  0.1037 -0.0458
  167TF    O91121371   1.007   4.872   0.268 -0.3720 -0.0187 -0.3120
  167TF     C9Z21372   0.977   4.671   0.111 -0.0653  0.0493  0.6127
  167TF    F91321373   0.972   4.536   0.101  0.1443 -0.2924 -1.1401
  167TF    F91421374   0.869   4.721   0.048 -0.8140 -0.9222 -0.4911
  167TF    F91521375   1.079   4.705   0.034 -0.2000 -0.3451  0.2303
  168TF     S9121376   2.714   4.783   4.607  0.4242  0.0710 -0.6335
  168TF     O9221377   2.734   4.639   4.614  0.2298 -0.6162 -0.4518
  168TF     O9321378   2.786   4.852   4.709  0.0105 -0.4635 -0.3662
  168TF     C9Z21379   2.803   4.828   4.452  0.4718  0.4611  0.2566
  168TF     F9521380   2.739   4.775   4.348  0.3619  0.1476 -0.3850
  168TF     F9621381   2.932   4.787   4.442  0.2530 -0.3174 -0.0876
  168TF     F9721382   2.816   4.958   4.429  0.8508  0.0497  0.1990
  168TF     N9821383   2.563   4.827   4.584  0.0481 -0.4941 -0.4115
  168TF     S9921384   2.479   4.883   4.703 -0.0028  0.2031 -0.0286
  168TF    O91021385   2.483   5.028   4.704 -0.3631  0.3149  0.1992
  168TF    O91121386   2.511   4.830   4.830  0.0513 -0.5710  0.5324
  168TF     C9Z21387   2.302   4.846   4.667 -0.1845  0.2015  0.0460
  168TF    F91321388   2.250   4.936   4.589  0.0435 -0.1485  0.3093
  168TF    F91421389   2.291   4.721   4.624  0.2811 -0.2409  0.4972
  168TF    F91521390   2.224   4.845   4.779  0.4759 -0.2227  0.1732
  169TF     S9121391   1.197   2.413   2.303 -0.2589 -0.2528  0.4518
  169TF     O9221392   1.086   2.487   2.360 -0.6497  0.2352 -0.0638
  169TF     O9321393   1.291   2.477   2.218 -0.1098  0.2177 -0.1780
  169TF     C9Z21394   1.305   2.366   2.450 -0.2112  0.1634  0.2838
  169TF     F9521395   1.423   2.298   2.429 -0.2142  0.2456  0.1625
  169TF     F9621396   1.233   2.298   2.537  0.0835 -0.1728 -0.4309
  169TF     F9721397   1.345   2.477   2.511 -0.4908  0.5611  0.6475
  169TF     N9821398   1.148   2.266   2.256 -0.1993  0.3043  0.5906
  169TF     S9921399   1.127   2.220   2.105  0.1590 -0.0186 -0.0506
  169TF    O91021400   1.249   2.210   2.034  0.0895  0.1487 -0.1848
  169TF    O91121401   1.012   2.270   2.038 -0.3481 -0.9365 -0.2836
  169TF     C9Z21402   1.096   2.041   2.122 -0.3961  0.1496 -0.1936
  169TF    F91321403   1.071   1.990   2.006  0.1915  0.0186 -0.6192
  169TF    F91421404   1.198   1.978   2.178  0.2350  0.1930  0.6451
  169TF    F91521405   0.994   2.013   2.202  0.0554  0.2194  0.5831
  170TF     S9121406   2.862   0.164   4.349  0.0306 -0.0709  0.1283
  170TF     O9221407   2.959   0.234   4.436  0.3154  0.1127 -0.6005
  170TF     O9321408   2.897   0.026   4.328  0.5422  0.3996 -0.0991
  170TF     C9Z21409   2.703   0.184   4.456  0.0402 -0.3530  0.0451
  170TF     F9521410   2.717   0.111   4.563  0.7072  0.1051  0.3182
  170TF     F9621411   2.597   0.132   4.387  0.5162 -0.5294  0.2084
  170TF     F9721412   2.666   0.307   4.487 -0.1595  0.2753 -0.8589
  170TF     N9821413   2.851   0.242   4.219  0.2900  0.6584 -0.1822
  170TF     S9921414   2.960   0.277   4.120 -0.2420 -0.1508  0.0395
  170TF    O91021415   3.060   0.170   4.102 -0.5295 -0.1624 -0.1435
  170TF    O91121416   3.023   0.404   4.155  0.1580  0.4567  0.1064
  170TF     C9Z21417   2.870   0.302   3.963  0.2275 -0.5149  0.1480
  170TF    F91321418   2.781   0.396   3.975  0.2935  0.0456 -0.1419
  170TF    F91421419   2.943   0.340   3.861 -0.1056 -0.0944 -0.1433
  170TF    F91521420   2.798   0.195   3.924 -0.4373  0.4109  0.0920
  171TF     S9121421   6.615   5.755   0.437 -0.0178  0.2716  0.2520
  171TF     O9221422   6.733   5.690   0.384 -0.2138  0.0719 -0.0170
  171TF     O9321423   6.632   5.887   0.497  0.5150  0.0687 -0.1611
  171TF     C9Z21424   6.522   5.793   0.277  0.2989  0.6357 -0.0799
  171TF     F9521425   6.403   5.847   0.298 -0.1665  0.7047  0.2403
  171TF     F9621426   6.509   5.680   0.202  0.0193  0.2549  0.2202
  171TF     F9721427   6.582   5.892   0.201  0.3381 -0.3797 -0.0850
  171TF     N9821428   6.518   5.656   0.506  0.4310  0.5381  0.0264
  171TF     S9921429   6.509   5.651   0.657  0.1730 -0.2590 -0.2115
  171TF    O91021430   6.397   5.727   0.708  0.2255  0.0442 -0.3931
  171TF    O91121431   6.634   5.656   0.730  0.0281  0.7275  0.0727
  171TF     C9Z21432   6.457   5.477   0.676 -0.2931  0.3015 -1.0579
  171TF    F91321433   6.543   5.390   0.623 -0.6828 -0.1535 -0.0928
  171TF    F91421434   6.445   5.453   0.808  0.2439  0.4502 -0.3294
  171TF    F91521435   6.343   5.446   0.616  0.2344 -0.0817 -0.0258
  172TF     S9121436   0.017   3.730   0.436  0.1629  0.4116 -0.0496
  172TF     O9221437  -0.020   3.669   0.312  0.3795 -0.4028  0.2488
  172TF     O9321438   0.159   3.753   0.458  0.1099 -0.0109 -0.3150
  172TF     C9Z21439  -0.055   3.901   0.423 -0.2309  0.4431 -0.4420
  172TF     F9521440  -0.001   3.969   0.317 -0.2222  0.3774  0.2326
  172TF     F9621441  -0.042   3.980   0.529 -0.0556 -0.3768 -0.1008
  172TF     F9721442  -0.183   3.895   0.393  0.0892 -0.0238 -0.3700
  172TF     N9821443  -0.055   3.670   0.554  0.6413  0.0317  0.2575
  172TF     S9921444  -0.030   3.519   0.590 -0.1733 -0.2025  0.0033
  172TF    O91021445   0.063   3.457   0.499 -0.0033 -0.6841  0.9261
  172TF    O91121446  -0.146   3.449   0.626  0.6207 -0.7216 -0.0837
  172TF     C9Z21447   0.070   3.526   0.748 -0.0186 -0.1558  0.2167
  172TF    F91321448   0.104   3.409   0.793  0.2593  0.2702 -0.3994
  172TF    F91421449   0.188   3.584   0.741 -0.0936 -0.0585  0.3943
  172TF    F91521450   0.002   3.586   0.847  0.2161  0.1198 -0.1523
  173TF     S9121451   2.598   3.157   6.914 -0.0187  0.2455 -0.2152
  173TF     O9221452   2.650   3.259   7.005  0.0451 -0.0845 -0.0411
  173TF     O9321453   2.698   3.082   6.834  0.3510 -0.3850  0.1471
  173TF     C9Z21454   2.522   3.034   7.042  0.8607  0.0446 -0.6354
  173TF     F9521455   2.485   2.914   6.991  0.1931 -0.4810 -0.0918
  173TF     F9621456   2.407   3.077   7.096  0.7913 -0.2222 -0.6664
  173TF     F9721457   2.597   3.005   7.147  0.0135  0.4462 -0.6705
  173TF     N9821458   2.470   3.211   6.842  0.4555 -0.6090  0.2929
  173TF     S9921459   2.434   3.164   6.694  0.0557  0.0148  0.2007
  173TF    O91021460   2.397   3.018   6.692 -0.3450  1.2161  0.0645
  173TF    O91121461   2.526   3.211   6.586  0.3155 -0.5961 -0.2333
  173TF     C9Z21462   2.280   3.255   6.656  0.1746  0.8156 -0.4690
  173TF    F91321463   2.195   3.255   6.758 -0.1829 -0.2116  0.7688
  173TF    F91421464   2.312   3.378   6.624 -0.5352  0.7345  0.2314
  173TF    F91521465   2.230   3.195   6.547 -0.0806 -0.3719  0.1693
  174TF     S9121466   3.278   5.251   0.153  0.3711 -0.6540 -0.6087
  174TF     O9221467   3.248   5.256   0.296  0.4424  0.2431 -0.2221
  174TF     O9321468   3.184   5.193   0.065  0.0358  0.0232  0.0236
  174TF     C9Z21469   3.295   5.426   0.085  0.3617 -0.0216  0.2464
  174TF     F9521470   3.377   5.502   0.154  0.2625  0.0008 -0.0146
  174TF     F9621471   3.183   5.493   0.071 -0.1043 -0.3261  0.5977
  174TF     F9721472   3.347   5.424  -0.037  0.8767  0.3571  0.1563
  174TF     N9821473   3.419   5.204   0.131  0.3593 -0.3581 -0.0537
  174TF     S9921474   3.515   5.165   0.244 -0.2001 -0.1019 -0.6288
  174TF    O91021475   3.514   5.028   0.283  0.1409  0.2729 -0.3976
  174TF    O91121476   3.541   5.263   0.348  0.2280 -0.1864  0.4075
  174TF     C9Z21477   3.672   5.170   0.154  0.0524  0.2697  1.0074
  174TF    F91321478   3.680   5.065   0.068 -0.0206  0.0768 -0.2318
  174TF    F91421479   3.682   5.286   0.086 -0.6154  0.4031 -0.6392
  174TF    F91521480   3.797   5.157   0.213  0.1184 -0.1897  0.0403
  175TF     S9121481   5.801   4.043   6.745 -0.2787  0.3487  0.4422
  175TF     O9221482   5.911   3.987   6.670  0.4974  0.1950  0.1319
  175TF     O9321483   5.799   4.007   6.886  0.1848 -0.5187  0.2738
  175TF     C9Z21484   5.822   4.228   6.740  0.0462 -0.5944  0.1720
  175TF     F9521485   5.937   4.267   6.784 -0.2440 -0.5030 -0.2842
  175TF     F9621486   5.733   4.282   6.819 -0.0069 -0.5035  0.2391
  175TF     F9721487   5.803   4.270   6.614 -0.2046 -1.1069  0.4861
  175TF     N9821488   5.665   4.031   6.682  0.7347  0.0128 -0.0472
  175TF     S9921489   5.601   3.891   6.653 -0.5340 -0.0099 -0.1741
  175TF    O91021490   5.639   3.792   6.748 -0.1475 -0.1078  0.1020
  175TF    O91121491   5.611   3.859   6.514  0.1827  0.7299  0.2501
  175TF     C9Z21492   5.421   3.930   6.696  0.0118  0.3409 -0.3028
  175TF    F91321493   5.379   4.028   6.631  0.1196 -0.1385  0.3651
  175TF    F91421494   5.336   3.829   6.686 -0.0364 -0.0293  0.2419
  175TF    F91521495   5.421   3.973   6.822 -0.0646  0.6145 -0.0003
  176TF     S9121496   3.551   3.754   2.901 -0.0424  0.0917 -0.1701
  176TF     O9221497   3.661   3.796   2.982 -0.4869  0.6417 -0.2741
  176TF     O9321498   3.470   3.641   2.939  0.2027  0.5528  0.1631
  176TF     C9Z21499   3.428   3.896   2.915  0.1979  0.2567 -0.1025
  176TF     F9521500   3.432   3.949   3.037  0.3200 -0.1579  0.0780
  176TF     F9621501   3.302   3.852   2.900 -0.2493 -0.0381 -0.4468
  176TF     F9721502   3.439   3.999   2.830 -0.1234 -0.0815  0.0724
  176TF     N9821503   3.587   3.769   2.752 -0.3662 -0.8880 -0.0213
  176TF     S9921504   3.619   3.652   2.660 -0.0922 -0.4145 -0.2132
  176TF    O91021505   3.507   3.595   2.588 -0.1528 -0.2945 -0.2495
  176TF    O91121506   3.715   3.566   2.720  0.1446 -0.2043 -0.4457
  176TF     C9Z21507   3.701   3.762   2.535  0.4508  0.5486  0.9578
  176TF    F91321508   3.811   3.810   2.587 -0.4720  0.0517 -0.0098
  176TF    F91421509   3.740   3.692   2.425  0.4924 -0.2021 -0.0702
  176TF    F91521510   3.638   3.868   2.484  0.1331 -0.6053  0.4274
  177TF     S9121511   6.162   5.153   2.286 -0.0281  0.1653 -0.1622
  177TF     O9221512   6.155   5.068   2.169  0.0624 -0.7064 -0.0595
  177TF     O9321513   6.037   5.211   2.332 -0.5353 -0.0583 -0.1564
  177TF     C9Z21514   6.210   5.042   2.426  0.0084 -0.3997  0.4729
  177TF     F9521515   6.234   5.106   2.541 -0.2428  0.0085  0.2192
  177TF     F9621516   6.326   4.982   2.385  0.1828 -0.2430  0.2353
  177TF     F9721517   6.122   4.945   2.451  0.3805 -0.1586  0.1045
  177TF     N9821518   6.279   5.258   2.279 -0.4825  0.0637  0.6209
  177TF     S9921519   6.273   5.370   2.173 -0.1162 -0.0475 -0.5329
  177TF    O91021520   6.240   5.494   2.238 -0.0634 -0.2014  0.4483
  177TF    O91121521   6.187   5.347   2.061 -0.4850 -0.0432 -0.3751
  177TF     C9Z21522   6.444   5.393   2.103 -0.0872 -0.7354  0.1118
  177TF    F91321523   6.433   5.495   2.018  0.5125  0.4668 -0.6755
  177TF    F91421524   6.536   5.434   2.189 -0.2023  0.1060  0.1000
  177TF    F91521525   6.500   5.291   2.036 -0.0266 -0.1893  0.0563
  178TF     S9121526   3.654   2.239   3.558  0.0728 -0.0912 -0.3450
  178TF     O9221527   3.779   2.275   3.507 -0.4454 -0.0773 -0.4818
  178TF     O9321528   3.537   2.296   3.492 -0.2245 -0.7227  0.4647
  178TF     C9Z21529   3.636   2.055   3.530  0.2215 -0.3232 -0.2442
  178TF     F9521530   3.620   2.027   3.405  0.1607 -0.3623  0.4487
  178TF     F9621531   3.533   2.004   3.591 -0.0442 -0.5422  0.2438
  178TF     F9721532   3.748   1.987   3.565  0.2924 -0.3378  0.4205
  178TF     N9821533   3.644   2.246   3.713  0.3673  0.1798 -0.0102
  178TF     S9921534   3.607   2.371   3.793  0.1552 -0.2133 -0.2863
  178TF    O91021535   3.593   2.492   3.715  0.1062 -0.0276 -0.4227
  178TF    O91121536   3.673   2.380   3.923  0.1319 -0.4747  0.0800
  178TF     C9Z21537   3.432   2.326   3.842 -0.2842 -0.0192 -0.3514
  178TF    F91321538   3.386   2.383   3.950  0.1540  0.0142 -0.2633
  178TF    F91421539   3.340   2.361   3.755  0.0792  0.1037 -0.3446
  178TF    F91521540   3.418   2.197   3.861  0.6922 -0.7600 -0.4626
  179TF     S9121541   3.576   1.029   2.754 -0.4216  0.0624  0.1266
  179TF     O9221542   3.546   0.986   2.618 -0.0940  0.2697  0.3137
  179TF     O9321543   3.467   1.032   2.853 -0.3596  0.0969  1.0923
  179TF     C9Z21544   3.682   0.890   2.808  0.1715 -0.0226 -0.6262
  179TF     F9521545   3.635   0.766   2.786  0.6707 -0.4956  0.1824
  179TF     F9621546   3.698   0.895   2.936 -0.5356  0.4302 -0.0210
  179TF     F9721547   3.809   0.896   2.758  0.0256  0.3411 -0.8276
  179TF     N9821548   3.675   1.153   2.775  0.0547  0.0668 -0.0628
  179TF     S9921549   3.630   1.294   2.747 -0.0373 -0.0780 -0.0517
  179TF    O91021550   3.662   1.387   2.854  0.7454 -0.2675  0.3642
  179TF    O91121551   3.497   1.296   2.699  0.2505 -0.1765  0.1604
  179TF     C9Z21552   3.737   1.357   2.605 -0.2201  0.6592  0.7534
  179TF    F91321553   3.855   1.387   2.654  0.0042 -0.0782 -0.0619
  179TF    F91421554   3.771   1.268   2.519  0.3544  0.3625 -0.4913
  179TF    F91521555   3.706   1.458   2.524 -0.0261  0.0670  0.0601
  180TF     S9121556   3.008   5.973   6.020 -0.7731 -0.3595 -0.4552
  180TF     O9221557   2.954   5.854   5.962  0.0832  0.2066 -0.1840
  180TF     O9321558   2.979   6.095   5.952 -0.2260 -0.5911  0.2793
  180TF     C9Z21559   2.914   5.996   6.181  0.2320  0.4571  0.2241
  180TF     F9521560   2.782   6.026   6.164 -0.0953  0.1412  0.0802
  180TF     F9621561   2.961   6.098   6.251  0.2952  0.3887  0.0909
  180TF     F9721562   2.918   5.884   6.257  0.7564 -0.1262 -0.0063
  180TF     N9821563   3.157   5.971   6.060  0.1069 -0.4089 -0.0950
  180TF     S9921564   3.265   5.895   5.983 -0.2867  0.0404  0.2171
  180TF    O91021565   3.293   5.955   5.853  0.1479 -0.1350  0.3644
  180TF    O91121566   3.243   5.751   5.982  0.1124 -0.3548  0.0633
  180TF     C9Z21567   3.416   5.915   6.086 -0.3344 -0.4259 -0.5443
  180TF    F91321568   3.467   6.036   6.071  0.2590 -0.3880  0.2250
  180TF    F91421569   3.388   5.901   6.212  0.3334  0.1969 -0.2528
  180TF    F91521570   3.522   5.842   6.074  0.0283 -0.0697  0.2370
  181TF     S9121571   4.783   6.228   4.731  0.0775  0.1428 -0.2093
  181TF     O9221572   4.756   6.312   4.618 -0.4639  0.1413  0.4721
  181TF     O9321573   4.670   6.160   4.795 -0.1303 -0.3925  0.6739
  181TF     C9Z21574   4.885   6.092   4.666 -0.0699 -0.3814  1.0767
  181TF     F9521575   4.830   6.026   4.567 -0.4102 -0.0259  0.1463
  181TF     F9621576   4.915   5.994   4.749 -0.5774  0.2608  0.2671
  181TF     F9721577   5.004   6.132   4.614  0.9691  0.2767  0.1623
  181TF     N9821578   4.880   6.284   4.834  0.3208  0.2938  0.5253
  181TF     S9921579   4.851   6.331   4.981  0.1059  0.0719 -0.5422
  181TF    O91021580   4.712   6.309   5.025 -0.2449 -0.0142  0.4163
  181TF    O91121581   4.902   6.464   4.999  0.3655  0.4853  0.1784
  181TF     C9Z21582   4.956   6.215   5.080 -1.2045  0.2108  0.0775
  181TF    F91321583   4.966   6.268   5.205 -0.4051  0.1355  0.3357
  181TF    F91421584   4.906   6.093   5.083 -0.2301  0.1002 -0.1221
  181TF    F91521585   5.075   6.195   5.030  0.2575 -0.0057  0.3049
  182TF     S9121586   6.212   3.686   0.092  0.0220  0.1194  0.2367
  182TF     O9221587   6.070   3.678   0.090  0.0890 -0.3557 -0.2682
  182TF     O9321588   6.274   3.654   0.222  0.4681 -0.2723 -0.2174
  182TF     C9Z21589   6.259   3.546  -0.016 -0.2528 -0.2404  0.0547
  182TF     F9521590   6.393   3.531  -0.024  0.0901 -0.0235 -0.4734
  182TF     F9621591   6.220   3.573  -0.139 -0.2384  0.0455  0.0622
  182TF     F9721592   6.204   3.433   0.023  0.1499  0.1285 -0.0449
  182TF     N9821593   6.281   3.808   0.025  0.3835 -0.3291  0.1548
  182TF     S9921594   6.206   3.946  -0.004 -0.1309  0.2974 -0.0277
  182TF    O91021595   6.274   4.055   0.067  0.6222  0.4144  0.1386
  182TF    O91121596   6.062   3.953  -0.012  0.3865  0.0524  0.5034
  182TF     C9Z21597   6.243   3.970  -0.186 -0.4312  0.1470 -0.3824
  182TF    F91321598   6.374   3.949  -0.203 -0.1687 -0.2578  0.0921
  182TF    F91421599   6.192   3.869  -0.254 -0.2905 -0.0376  0.2517
  182TF    F91521600   6.217   4.077  -0.265  0.6101  0.1985  0.4951
  183TF     S9121601   6.179   0.613   5.336 -0.2469 -0.3370 -0.0187
  183TF     O9221602   6.267   0.554   5.240  0.3381 -0.1589  0.2835
  183TF     O9321603   6.136   0.749   5.311 -0.6481  0.2204 -0.3215
  183TF     C9Z21604   6.019   0.514   5.339 -0.0975  0.5211  0.6170
  183TF     F9521605   5.951   0.529   5.227 -0.2543  0.2110 -0.1832
  183TF     F9621606   5.932   0.555   5.434 -0.3640 -0.3586  0.4783
  183TF     F9721607   6.037   0.378   5.348 -0.7073  0.1581 -0.1604
  183TF     N9821608   6.234   0.596   5.480  0.1643  0.8023  0.2320
  183TF     S9921609   6.333   0.691   5.548 -0.3605  0.0770  0.4481
  183TF    O91021610   6.292   0.828   5.547 -0.4583 -0.0019 -0.9224
  183TF    O91121611   6.469   0.654   5.504 -0.4861 -0.3810 -0.1355
  183TF     C9Z21612   6.333   0.639   5.721 -0.4687  0.0371  0.3649
  183TF    F91321613   6.212   0.637   5.774 -0.0869 -0.1540  0.6695
  183TF    F91421614   6.376   0.515   5.732  0.4169 -0.2200  0.3888
  183TF    F91521615   6.402   0.704   5.815 -0.1019  0.1054 -0.0205
  184TF     S9121616   4.496   3.974   5.838  0.3751 -0.3048 -0.1006
  184TF     O9221617   4.620   4.043   5.854  0.0353 -0.1746  0.3383
  184TF     O9321618   4.500   3.833   5.866  0.1776 -0.2594  0.5088
  184TF     C9Z21619   4.400   4.042   5.980  0.5425 -0.0758  0.3474
  184TF     F9521620   4.282   3.990   6.007  0.0495 -0.3823  0.4905
  184TF     F9621621   4.379   4.166   5.946 -0.1042 -0.2590 -0.5274
  184TF     F9721622   4.473   4.043   6.089  0.1289  0.1472  0.1019
  184TF     N9821623   4.408   4.015   5.715  0.1483 -0.2086 -0.3494
  184TF     S9921624   4.471   4.063   5.577  0.0911 -0.2055  0.3610
  184TF    O91021625   4.461   3.971   5.472  0.5588 -0.5680  0.0663
  184TF    O91121626   4.594   4.133   5.590  0.3881  0.1309 -0.0743
  184TF     C9Z21627   4.356   4.205   5.523  0.2220 -0.3940  0.0621
  184TF    F91321628   4.401   4.265   5.415  0.2177  0.7750 -0.1366
  184TF    F91421629   4.231   4.164   5.498 -0.5058 -0.0244 -0.3327
  184TF    F91521630   4.353   4.290   5.624  0.8555  0.2297  0.2139
  185TF     S9121631   5.069   5.749   0.307 -0.3169  0.0925 -0.4140
  185TF     O9221632   5.051   5.745   0.167  0.3809 -0.0016  0.1754
  185TF     O9321633   5.161   5.650   0.359 -0.0934  0.2633 -0.3080
  185TF     C9Z21634   5.156   5.916   0.343 -0.5864  0.5905  0.5616
  185TF     F9521635   5.081   6.018   0.298  0.0357 -0.5272 -0.1213
  185TF     F9621636   5.279   5.930   0.286 -0.0144 -0.0097 -0.1065
  185TF     F9721637   5.176   5.938   0.475 -0.6998  0.1883 -0.2380
  185TF     N9821638   4.941   5.764   0.393  0.2584  0.3708  0.0418
  185TF     S9921639   4.859   5.657   0.475 -0.0755 -0.2502 -0.5169
  185TF    O91021640   4.898   5.523   0.448  0.1676  0.1242  0.8818
  185TF    O91121641   4.717   5.689   0.489 -0.4662 -0.6738  0.1834
  185TF     C9Z21642   4.938   5.701   0.644  0.2005 -0.1880  0.8152
  185TF    F91321643   4.912   5.828   0.663  0.3503 -0.3337 -0.6475
  185TF    F91421644   4.866   5.642   0.739 -0.2783  0.0312 -0.0040
  185TF    F91521645   5.064   5.695   0.678  0.3373  0.1946 -0.4080
  186TF     S9121646   1.383   5.915   6.556  0.2097  0.0783  0.0934
  186TF     O9221647   1.499   5.845   6.499  0.0396 -0.6530 -0.3488
  186TF     O9321648   1.408   6.034   6.638 -0.1925  0.8411  0.3830
  186TF     C9Z21649   1.292   5.984   6.409  0.1210  0.1504  0.0910
  186TF     F9521650   1.368   6.055   6.335  0.2263  0.5097  0.1953
  186TF     F9621651   1.197   6.073   6.445 -0.8512  0.2158 -0.0250
  186TF     F9721652   1.231   5.895   6.327 -0.0468 -0.4919 -0.0614
  186TF     N9821653   1.288   5.811   6.625 -0.2298  0.1887  0.2404
  186TF     S9921654   1.180   5.857   6.716 -0.0800 -0.2584  0.0018
  186TF    O91021655   1.076   5.934   6.648 -0.5968 -0.7507 -0.3475
  186TF    O91121656   1.233   5.919   6.834  0.1083  0.2790  0.3385
  186TF     C9Z21657   1.092   5.697   6.771  0.0717 -0.6594 -0.2265
  186TF    F91321658   0.986   5.719   6.852  0.0428  0.4145  0.2417
  186TF    F91421659   1.036   5.635   6.670 -0.0970 -0.1473  0.3500
  186TF    F91521660   1.171   5.610   6.838  0.0804  0.9980  0.5274
  187TF     S9121661   1.932   1.040   6.339 -0.4901  0.1325  0.4252
  187TF     O9221662   1.920   1.172   6.285 -0.2441  0.7483 -0.3117
  187TF     O9321663   1.989   1.032   6.470  0.1696 -0.3647  0.4337
  187TF     C9Z21664   1.749   1.000   6.357 -0.6541  0.3160 -0.2712
  187TF     F9521665   1.684   1.100   6.414 -0.5392  0.1459  0.7034
  187TF     F9621666   1.713   0.898   6.436 -0.0739 -0.4883 -0.1546
  187TF     F9721667   1.691   0.973   6.241 -0.4264 -0.3995  0.1233
  187TF     N9821668   1.990   0.929   6.245 -0.0933  0.7763  0.5137
  187TF     S9921669   2.139   0.890   6.252 -0.0395  0.0817  0.3292
  187TF    O91021670   2.157   0.791   6.358  0.1965  0.4214 -0.4042
  187TF    O91121671   2.225   1.006   6.246 -0.7168  0.3587  0.2542
  187TF     C9Z21672   2.161   0.809   6.082 -0.5276 -0.0151 -0.0836
  187TF    F91321673   2.216   0.892   5.991 -0.8193 -0.0562  0.2413
  187TF    F91421674   2.242   0.706   6.083 -0.0465  0.2602 -0.2626
  187TF    F91521675   2.048   0.757   6.044 -1.0863 -0.9591 -0.3520
  188TF     S9121676   3.082   1.756   6.276 -0.1503 -0.5857  0.2290
  188TF     O9221677   3.119   1.631   6.327 -0.0850 -0.0293  0.5728
  188TF     O9321678   3.082   1.863   6.371  0.4826 -0.2973  0.6497
  188TF     C9Z21679   3.213   1.809   6.159 -0.4075  0.0652 -1.5563
  188TF     F9521680   3.209   1.935   6.130  0.1783  0.0846 -0.1741
  188TF     F9621681   3.235   1.742   6.052  0.3885  0.0991  0.2085
  188TF     F9721682   3.327   1.813   6.222  0.1558 -0.3294  0.1890
  188TF     N9821683   2.959   1.757   6.179 -0.2709  0.0398 -0.2965
  188TF     S9921684   2.855   1.871   6.181 -0.5754  0.2549 -0.3046
  188TF    O91021685   2.904   1.995   6.119 -0.1082  0.9234 -0.3641
  188TF    O91121686   2.778   1.876   6.310  0.0266 -0.2314 -0.0861
  188TF     C9Z21687   2.730   1.813   6.063 -0.3419  0.2465  0.1852
  188TF    F91321688   2.777   1.808   5.942 -0.2179 -0.0212 -0.1311
  188TF    F91421689   2.704   1.686   6.097 -0.3437  0.1220  0.6277
  188TF    F91521690   2.615   1.878   6.069  0.4336  0.3358 -0.0728
  189TF     S9121691   3.024   3.859   3.958 -0.4429  0.4009 -0.2645
  189TF     O9221692   2.996   4.001   3.945 -0.5578  0.0565 -0.1123
  189TF     O9321693   2.930   3.770   3.889  0.7310 -0.3380  0.5380
  189TF     C9Z21694   3.187   3.830   3.868 -0.8763 -0.1687 -0.5605
  189TF     F9521695   3.284   3.910   3.914 -0.1056  0.4885  0.1404
  189TF     F9621696   3.181   3.850   3.736 -0.8786  0.0583  0.2195
  189TF     F9721697   3.235   3.711   3.889 -0.1627  0.0968  0.6429
  189TF     N9821698   3.060   3.825   4.107 -0.0044 -0.0080  0.1754
  189TF     S9921699   2.990   3.717   4.191  0.2892 -0.1375  0.1738
  189TF    O91021700   3.085   3.626   4.246  0.3551 -0.1362 -0.0249
  189TF    O91121701   2.871   3.654   4.140  0.0931  0.7998 -0.4132
  189TF     C9Z21702   2.939   3.822   4.338  0.0935 -0.3738 -0.4198
  189TF    F91321703   2.889   3.760   4.442  0.1605  0.0780  0.3255
  189TF    F91421704   3.043   3.892   4.389  0.3665 -0.2955 -0.4255
  189TF    F91521705   2.849   3.914   4.300  0.3114  0.2104 -0.9388
  190TF     S9121706   0.324   6.328   3.507 -0.0189  0.0244 -0.1475
  190TF     O9221707   0.424   6.404   3.583 -0.2750 -0.7436  0.0903
  190TF     O9321708   0.340   6.303   3.362  0.3560 -0.0233 -0.7139
  190TF     C9Z21709   0.339   6.157   3.586 -0.3994 -0.2843  0.2052
  190TF     F9521710   0.303   6.160   3.716 -0.4327  0.6102  0.3421
  190TF     F9621711   0.465   6.106   3.575  0.2024 -0.6163  0.2827
  190TF     F9721712   0.262   6.064   3.530 -0.0752  0.2313  0.7726
  190TF     N9821713   0.188   6.377   3.555  0.5639 -1.0073  0.1308
  190TF     S9921714   0.107   6.486   3.485 -0.3846  0.0979 -0.3160
  190TF    O91021715   0.144   6.506   3.348 -0.0312  0.1718 -0.2953
  190TF    O91121716   0.108   6.603   3.573 -0.0828 -0.5113 -0.1893
  190TF     C9Z21717  -0.064   6.410   3.478 -0.4074  0.4934  0.2295
  190TF    F91321718  -0.114   6.378   3.596 -0.0319  0.0603  0.0616
  190TF    F91421719  -0.157   6.484   3.418 -0.5645 -0.6030 -0.4666
  190TF    F91521720  -0.053   6.295   3.405 -0.2949 -0.3792 -0.0802
  191TF     S9121721   2.950   6.178   4.921 -0.1433 -0.2472 -0.2396
  191TF     O9221722   2.842   6.281   4.904 -0.2619  0.1786  0.8231
  191TF     O9321723   3.084   6.229   4.946  0.1146 -0.6675  0.2086
  191TF     C9Z21724   2.899   6.082   5.074 -0.2892 -0.0383  0.3908
  191TF     F9521725   3.002   6.008   5.113  0.1683  0.8746 -0.1832
  191TF     F9621726   2.807   5.996   5.048  0.0317 -0.1658  0.5834
  191TF     F9721727   2.845   6.154   5.168  0.2914 -0.3440 -0.3012
  191TF     N9821728   2.944   6.075   4.809 -0.1638 -0.1102 -0.0533
  191TF     S9921729   3.072   6.010   4.759  0.0052 -0.0669 -0.3629
  191TF    O91021730   3.149   5.964   4.872 -0.1241 -0.1254 -0.5988
  191TF    O91121731   3.147   6.088   4.663  0.3734 -0.7393  0.3815
  191TF     C9Z21732   3.001   5.863   4.671 -0.1315  1.0822  0.7834
  191TF    F91321733   3.029   5.750   4.738  0.3467  0.0015 -0.3534
  191TF    F91421734   2.865   5.862   4.659 -0.2041 -0.1614  0.5402
  191TF    F91521735   3.044   5.845   4.546 -0.1776  0.2811 -0.7327
  192TF     S9121736   0.183   3.596   3.167 -0.4821  0.0715 -0.1908
  192TF     O9221737   0.207   3.672   3.287  0.2161  0.0539 -0.0538
  192TF     O9321738   0.252   3.471   3.150 -0.2833 -0.3742  0.3227
  192TF     C9Z21739   0.001   3.581   3.169 -0.8071 -0.2009  0.4239
  192TF     F9521740  -0.040   3.502   3.266 -0.4519  0.0024  0.0498
  192TF     F9621741  -0.048   3.530   3.057  0.0194  0.1188 -0.6748
  192TF     F9721742  -0.067   3.699   3.194 -0.4946  0.9540  0.1313
  192TF     N9821743   0.203   3.685   3.047  0.0757 -0.3849 -0.0185
  192TF     S9921744   0.336   3.696   2.969 -0.4254 -0.1440 -0.3155
  192TF    O91021745   0.315   3.677   2.826  0.3328  0.1831  0.4803
  192TF    O91121746   0.451   3.621   3.024  0.1731  0.7241  0.1579
  192TF     C9Z21747   0.391   3.869   2.999  0.3085  0.1419  0.4165
  192TF    F91321748   0.414   3.894   3.132 -0.5114  0.2310 -0.1210
  192TF    F91421749   0.501   3.889   2.931 -0.4170  0.3983  0.4179
  192TF    F91521750   0.298   3.956   2.966  0.6162  0.4433  0.4576
  193TF     S9121751   0.189   5.818   2.174  0.3312 -0.2708  0.1164
  193TF     O9221752   0.285   5.846   2.069  0.0899 -0.2079 -0.2178
  193TF     O9321753   0.090   5.722   2.154 -0.8254  0.4776 -0.2001
  193TF     C9Z21754   0.284   5.762   2.319  0.1528 -0.2584 -0.4402
  193TF     F9521755   0.354   5.651   2.290  0.0185  0.0343  0.1062
  193TF     F9621756   0.217   5.732   2.420  0.3784  0.0744 -0.4439
  193TF     F9721757   0.372   5.855   2.361  0.0483 -0.0475 -0.0701
  193TF     N9821758   0.116   5.945   2.225 -0.4164  0.4760  0.3573
  193TF     S9921759   0.168   6.083   2.194 -0.2583  0.1020  0.2101
  193TF    O91021760   0.102   6.139   2.075  0.2458 -0.4427 -0.1157
  193TF    O91121761   0.311   6.091   2.206 -0.3931 -0.4494  0.0585
  193TF     C9Z21762   0.102   6.185   2.327 -0.1164  0.0316 -0.2994
  193TF    F91321763   0.166   6.161   2.441 -0.2652  0.4774 -0.5919
  193TF    F91421764   0.133   6.310   2.299 -0.1329 -0.2903  0.3435
  193TF    F91521765  -0.027   6.196   2.359  0.3573 -0.7435 -0.2962
  194TF     S9121766   0.069   6.443   6.161  0.2973  0.0041 -0.3336
  194TF     O9221767   0.047   6.346   6.059 -0.0670  0.0073  0.4866
  194TF     O9321768   0.207   6.452   6.205 -0.4847 -0.0035  0.5298
  194TF     C9Z21769   0.034   6.602   6.081 -0.3545  0.0652 -0.2037
  194TF     F9521770   0.020   6.712   6.155 -0.3546  0.2771 -0.6179
  194TF     F9621771  -0.066   6.598   6.006  0.5138  0.2086  0.7798
  194TF     F9721772   0.136   6.640   5.998 -0.0090 -0.8645  0.0958
  194TF     N9821773  -0.036   6.434   6.281  0.0052  0.2582  0.7549
  194TF     S9921774   0.008   6.404   6.428  0.6734  0.3376  0.3043
  194TF    O91021775   0.054   6.522   6.492  0.1132 -0.0467 -0.0581
  194TF    O91121776   0.066   6.275   6.448 -0.3295  0.4035 -0.8374
  194TF     C9Z21777  -0.154   6.393   6.514  0.1462 -0.0462  0.6510
  194TF    F91321778  -0.136   6.400   6.649  0.0098 -0.1393  0.3746
  194TF    F91421779  -0.229   6.495   6.481 -0.3821  0.0078  0.1005
  194TF    F91521780  -0.233   6.290   6.495  0.0296 -0.5238  0.4446
  195TF     S9121781   1.734   4.071   4.140 -0.4557  0.2599  0.1407
  195TF     O9221782   1.852   4.142   4.097 -0.1722  0.4025  0.2068
  195TF     O9321783   1.649   4.128   4.243  0.6769  0.0941 -0.3554
  195TF     C9Z21784   1.615   4.064   3.993  0.1822  0.8313 -0.6008
  195TF     F9521785   1.663   3.993   3.891  0.2789  0.2057  0.2988
  195TF     F9621786   1.583   4.188   3.947 -0.0278  0.0020 -0.2046
  195TF     F9721787   1.504   4.001   4.039 -0.2123 -0.2276  0.2241
  195TF     N9821788   1.748   3.921   4.163  0.1474  0.0797  0.4559
  195TF     S9921789   1.863   3.878   4.259 -0.3264 -0.3217 -0.2456
  195TF    O91021790   1.947   3.982   4.311  0.1227 -0.0240  0.0056
  195TF    O91121791   1.933   3.760   4.216 -0.4037  0.2689 -0.3759
  195TF     C9Z21792   1.772   3.827   4.407  0.5630 -0.3198 -0.1426
  195TF    F91321793   1.704   3.716   4.394 -0.3606  0.2569 -0.5631
  195TF    F91421794   1.853   3.789   4.503  0.0243 -1.1216  0.1204
  195TF    F91521795   1.682   3.901   4.471 -0.2361 -0.0016  0.0350
  196TF     S9121796   1.966   2.987   0.337  0.2619  0.1425 -0.1990
  196TF     O9221797   1.842   2.935   0.390  0.1445  0.3223  0.2014
  196TF     O9321798   2.027   2.908   0.227 -0.7197 -0.3614  0.3913
  196TF     C9Z21799   1.907   3.145   0.272  0.2107  0.3820 -0.1573
  196TF     F9521800   1.875   3.233   0.365  0.0744  0.1317 -0.0987
  196TF     F9621801   1.798   3.131   0.191  0.4198 -0.3029 -0.1304
  196TF     F9721802   1.998   3.195   0.194 -0.2114 -0.3349 -0.3808
  196TF     N9821803   2.063   3.035   0.444 -0.9616 -0.6048  0.1709
  196TF     S9921804   2.104   2.932   0.556  0.1206  0.5253 -0.4303
  196TF    O91021805   2.068   2.797   0.529  0.2812  0.4491  0.1593
  196TF    O91121806   2.070   2.972   0.694  0.4886  0.3055 -0.5315
  196TF     C9Z21807   2.288   2.949   0.560  0.9122  0.1433  0.0371
  196TF    F91321808   2.314   3.073   0.594  0.5525  0.2386 -0.3948
  196TF    F91421809   2.355   2.882   0.654 -0.1634  0.2374 -0.1495
  196TF    F91521810   2.357   2.928   0.452  0.0288  0.4423 -0.1664
  197TF     S9121811   3.271   5.037   1.899  0.2935 -0.2254 -0.2101
  197TF     O9221812   3.357   4.966   1.991 -0.3158 -1.2313 -0.5570
  197TF     O9321813   3.136   5.039   1.936 -0.1266 -0.2211  0.3446
  197TF     C9Z21814   3.319   5.218   1.903  0.7825 -0.7900  0.1402
  197TF     F9521815   3.322   5.272   2.022 -0.0715 -0.0362  0.0476
  197TF     F9621816   3.218   5.291   1.845  0.1471  0.5577 -0.2307
  197TF     F9721817   3.427   5.250   1.834  0.1436  0.4101 -0.0572
  197TF     N9821818   3.294   4.998   1.753  0.0941 -0.6450 -0.4536
  197TF     S9921819   3.416   4.910   1.719  0.0155  0.1092  0.1074
  197TF    O91021820   3.420   4.781   1.785  0.3643  0.4508  0.0673
  197TF    O91121821   3.537   4.992   1.725  0.2985  0.0858 -0.2211
  197TF     C9Z21822   3.379   4.865   1.539 -0.4101 -0.4534 -0.6031
  197TF    F91321823   3.261   4.810   1.528 -0.2902 -0.2943  0.1087
  197TF    F91421824   3.376   4.975   1.462 -0.3236 -0.3868  0.3467
  197TF    F91521825   3.454   4.775   1.472  0.3058  0.3357  0.0495
  198TF     S9121826   2.156   2.173   0.861 -0.0766 -0.1586  0.1409
  198TF     O9221827   2.144   2.056   0.779  0.3670  0.1231  0.1326
  198TF     O9321828   2.116   2.173   0.997  0.0624  0.4956  0.1613
  198TF     C9Z21829   2.339   2.210   0.864 -0.4887  0.1125  0.8136
  198TF     F9521830   2.396   2.229   0.741 -0.8983  0.2214 -0.6067
  198TF     F9621831   2.402   2.104   0.920 -0.0488 -0.4708  0.5137
  198TF     F9721832   2.371   2.312   0.941  0.2524  0.6281 -0.5795
  198TF     N9821833   2.088   2.301   0.788  0.4384 -0.2050 -0.3298
  198TF     S9921834   1.950   2.355   0.831 -0.0299  0.3902  0.1726
  198TF    O91021835   1.978   2.467   0.920  0.7083 -0.5037  0.0788
  198TF    O91121836   1.843   2.257   0.854  0.1062 -0.1549  0.4764
  198TF     C9Z21837   1.888   2.448   0.679  0.3764 -0.4154 -0.4258
  198TF    F91321838   1.980   2.528   0.633 -0.5751  0.1266  0.2765
  198TF    F91421839   1.874   2.368   0.577 -0.0047  0.3661  0.0257
  198TF    F91521840   1.776   2.519   0.670  0.4682  0.7479 -0.6817
  199TF     S9121841   4.814   1.288   4.493 -0.0822 -0.0980  0.0564
  199TF     O9221842   4.716   1.260   4.399 -0.1158  0.0911  0.3730
  199TF     O9321843   4.915   1.384   4.461  0.0990  0.3143  0.6436
  199TF     C9Z21844   4.714   1.368   4.631  0.6397 -0.4693  0.1006
  199TF     F9521845   4.651   1.485   4.599  0.0575 -0.3405  0.4285
  199TF     F9621846   4.790   1.396   4.736  0.3754 -0.0454 -0.2471
  199TF     F9721847   4.618   1.295   4.676  0.7250 -0.1437 -0.6313
  199TF     N9821848   4.872   1.162   4.568  0.0126  0.3291  0.2909
  199TF     S9921849   4.894   1.024   4.494 -0.0972  0.0747 -0.2216
  199TF    O91021850   5.021   0.959   4.524 -0.3622  0.8590 -0.0356
  199TF    O91121851   4.851   1.024   4.362  0.0062  0.5450 -0.0839
  199TF     C9Z21852   4.774   0.919   4.591 -0.8738 -0.3428 -0.4820
  199TF    F91321853   4.648   0.953   4.577 -0.0294 -0.0805 -0.1484
  199TF    F91421854   4.772   0.800   4.540  0.1990  0.2999 -0.2913
  199TF    F91521855   4.804   0.909   4.723 -0.2882  0.0383  0.2771
  200TF     S9121856   6.760   2.926   3.323 -0.5363  0.1364  0.0170
  200TF     O9221857   6.833   2.913   3.449  0.5611 -0.2491  0.0092
  200TF     O9321858   6.815   2.880   3.197 -0.1052  0.2493  0.3591
  200TF     C9Z21859   6.615   2.808   3.356  0.2358 -0.5804  0.4099
  200TF     F9521860   6.654   2.683   3.370 -0.0451  0.0546 -0.1041
  200TF     F9621861   6.531   2.820   3.253 -0.4052  0.0887 -0.1180
  200TF     F9721862   6.546   2.845   3.463  0.2619 -0.1851  0.2474
  200TF     N9821863   6.697   3.062   3.305  0.1923 -0.1963  0.4327
  200TF     S9921864   6.756   3.185   3.372  0.3927  0.0245  0.3103
  200TF    O91021865   6.859   3.239   3.283  0.2149 -0.2577 -0.0471
  200TF    O91121866   6.780   3.172   3.512  0.3136 -0.4418  0.4300
  200TF     C9Z21867   6.620   3.306   3.351  0.7269  0.0193  0.2327
  200TF    F91321868   6.511   3.267   3.410  0.0542 -0.1157 -0.2846
  200TF    F91421869   6.652   3.416   3.408 -0.4674 -0.3739  0.8761
  200TF    F91521870   6.596   3.330   3.216  0.4410  0.2211  0.2782
  201TF     S9121871   6.618   0.242   6.136 -0.0856 -0.2135  0.0077
  201TF     O9221872   6.698   0.224   6.016  0.7569  0.5313 -0.6946
  201TF     O9321873   6.693   0.285   6.253  0.3013 -0.1240  0.0810
  201TF     C9Z21874   6.516   0.398   6.091 -0.7955 -0.2629 -0.4621
  201TF     F9521875   6.432   0.382   5.995 -0.0935 -0.2586 -0.0450
  201TF     F9621876   6.598   0.491   6.043  0.6407  0.0779 -0.3767
  201TF     F9721877   6.451   0.448   6.192  0.3364 -0.3750 -0.3224
  201TF     N9821878   6.513   0.131   6.158  0.6430 -0.4885  0.0047
  201TF     S9921879   6.555  -0.015   6.190 -0.3810 -0.2735 -0.1852
  201TF    O91021880   6.672  -0.020   6.278  0.0427  0.3211 -0.0773
  201TF    O91121881   6.552  -0.098   6.067 -0.0219  0.2490 -0.2372
  201TF     C9Z21882   6.419  -0.069   6.303 -0.0146  0.1618  0.9619
  201TF    F91321883   6.413   0.003   6.413 -0.3468  0.2350 -0.1478
  201TF    F91421884   6.302  -0.065   6.246 -0.1193 -0.0284  0.5047
  201TF    F91521885   6.430  -0.197   6.339 -0.1898  0.1390  0.0565
  202TF     S9121886   4.020   4.694   3.493 -0.0715  0.0328 -0.0855
  202TF     O9221887   4.128   4.645   3.568 -0.8528  0.0966  0.1752
  202TF     O9321888   3.916   4.760   3.574 -0.0898 -0.4356 -0.0160
  202TF     C9Z21889   4.102   4.831   3.406 -0.2538 -0.1457  0.1778
  202TF     F9521890   4.217   4.793   3.363  0.1751 -0.4829 -0.7740
  202TF     F9621891   4.127   4.939   3.480 -0.1859  0.0751 -0.5548
  202TF     F9721892   4.034   4.869   3.297 -0.2707 -0.1517 -0.1903
  202TF     N9821893   3.957   4.602   3.384 -0.3708 -0.5169  0.0083
  202TF     S9921894   4.040   4.474   3.344 -0.0366 -0.3902 -0.3283
  202TF    O91021895   4.053   4.379   3.449 -0.5746  0.2666  0.1885
  202TF    O91121896   4.155   4.523   3.271  0.7717  0.0239  0.3180
  202TF     C9Z21897   3.938   4.391   3.215  0.6992  0.1821 -0.0973
  202TF    F91321898   3.960   4.443   3.096 -0.0451  0.4791 -0.0038
  202TF    F91421899   3.976   4.263   3.217  0.3276 -0.1105 -0.1075
  202TF    F91521900   3.808   4.393   3.231  0.3178 -0.0645  0.0220
  203TF     S9121901   1.347   0.863   3.313 -0.0486  0.1438  0.2045
  203TF     O9221902   1.336   0.891   3.174 -0.1766  0.1116 -0.1369
  203TF     O9321903   1.481   0.831   3.365  0.2209  0.0203  0.0429
  203TF     C9Z21904   1.300   1.021   3.410  0.4383 -0.0804  0.3957
  203TF     F9521905   1.364   1.133   3.390 -0.6301  0.2316  0.2745
  203TF     F9621906   1.306   1.001   3.542 -0.3771  0.4975 -0.5164
  203TF     F9721907   1.169   1.046   3.383 -0.3669 -0.2370  0.1613
  203TF     N9821908   1.241   0.762   3.361  0.6028 -0.0257  0.3148
  203TF     S9921909   1.204   0.638   3.276 -0.0564  0.0008  0.3106
  203TF    O91021910   1.285   0.615   3.157  0.0421  0.2760 -0.0869
  203TF    O91121911   1.062   0.623   3.254  0.4881  0.0020 -0.4558
  203TF     C9Z21912   1.255   0.502   3.390  0.2251  0.5034  0.0011
  203TF    F91321913   1.199   0.509   3.514  0.6059 -0.4505  0.3430
  203TF    F91421914   1.217   0.386   3.344  0.6635  0.7014  0.1389
  203TF    F91521915   1.384   0.496   3.414 -0.3315  0.7591 -0.3585
  204TF     S9121916   4.319   2.435   6.115  0.6213  0.3621 -0.0383
  204TF     O9221917   4.287   2.504   6.237 -0.1314 -0.1072 -0.2195
  204TF     O9321918   4.277   2.493   5.986  0.0852  0.4081  0.2389
  204TF     C9Z21919   4.504   2.417   6.116  0.4125 -0.2656 -0.2405
  204TF     F9521920   4.576   2.528   6.108  0.2630  0.0527 -0.1418
  204TF     F9621921   4.532   2.340   6.013  0.5309  0.1029 -0.3761
  204TF     F9721922   4.545   2.353   6.223 -0.0745 -0.1639 -0.7056
  204TF     N9821923   4.279   2.284   6.129 -0.1634  0.1423  0.0558
  204TF     S9921924   4.213   2.216   6.001 -0.1133  0.0214  0.2945
  204TF    O91021925   4.301   2.203   5.887 -0.6425  0.5074 -0.4442
  204TF    O91121926   4.081   2.258   5.974  0.4459 -0.4196 -0.2467
  204TF     C9Z21927   4.189   2.053   6.073  0.1238  0.6557  0.8386
  204TF    F91321928   4.113   2.064   6.186  0.2654 -0.2392  0.5034
  204TF    F91421929   4.116   1.975   5.994 -0.2824  0.0098 -0.4183
  204TF    F91521930   4.289   1.970   6.103  0.3389  0.2474 -0.0355
  205TF     S9121931   4.111   5.684   4.129  0.0728  0.2477 -0.0137
  205TF     O9221932   3.993   5.616   4.095  0.3937 -0.2016 -0.3276
  205TF     O9321933   4.221   5.668   4.043  0.1346  0.2401  0.2289
  205TF     C9Z21934   4.060   5.863   4.102  0.0110 -0.1195 -0.2772
  205TF     F9521935   4.049   5.885   3.972 -0.1605  0.8697 -0.3832
  205TF     F9621936   4.151   5.950   4.147 -0.9310 -0.2779 -0.1833
  205TF     F9721937   3.950   5.901   4.160  0.1784  0.1977 -0.4171
  205TF     N9821938   4.156   5.681   4.273  0.4455  0.2334  0.3359
  205TF     S9921939   4.189   5.549   4.342 -0.0285 -0.1408  0.4340
  205TF    O91021940   4.324   5.503   4.325 -0.5974  0.2195  0.7858
  205TF    O91121941   4.084   5.450   4.339  0.3996  0.3640  0.0718
  205TF     C9Z21942   4.169   5.598   4.519 -0.8193 -0.2920  0.1548
  205TF    F91321943   4.046   5.619   4.550  0.1936  0.3077 -0.3949
  205TF    F91421944   4.234   5.513   4.603 -0.1321 -0.1296 -0.2482
  205TF    F91521945   4.226   5.716   4.532 -0.7153 -0.1032  0.0019
  206TF     S9121946   1.759   4.010   3.289  0.2254 -0.0957 -0.2421
  206TF     O9221947   1.631   4.059   3.260 -0.2327  0.3786 -0.5659
  206TF     O9321948   1.774   3.866   3.279 -0.0939  0.3469 -0.1145
  206TF     C9Z21949   1.873   4.072   3.152 -0.0947  0.2547  0.4340
  206TF     F9521950   1.840   4.035   3.027  0.2209  0.8514 -0.0712
  206TF     F9621951   2.000   4.039   3.163 -0.3005 -0.1226 -0.1619
  206TF     F9721952   1.878   4.209   3.159  0.3471  0.2398 -0.0918
  206TF     N9821953   1.812   4.074   3.416 -0.0814 -0.5114  0.2863
  206TF     S9921954   1.769   4.036   3.564  0.1070 -0.2443 -0.1276
  206TF    O91021955   1.812   3.905   3.605  0.5089  0.0526  0.2559
  206TF    O91121956   1.625   4.062   3.588 -0.1742 -0.1645 -0.2389
  206TF     C9Z21957   1.862   4.157   3.667 -0.1996  0.5031  0.6319
  206TF    F91321958   1.827   4.285   3.654 -0.1615 -0.1845  0.8874
  206TF    F91421959   1.841   4.143   3.800  0.5139 -0.0125  0.2229
  206TF    F91521960   1.994   4.154   3.648  0.1041  0.3165 -0.5022
  207TF     S9121961   4.739   2.660   0.092  0.1217  0.1196  0.0588
  207TF     O9221962   4.848   2.717   0.016 -0.0599  0.1193  0.3900
  207TF     O9321963   4.761   2.604   0.225  0.4304  0.6234  0.1670
  207TF     C9Z21964   4.628   2.808   0.138 -0.4828  0.9266 -0.7866
  207TF     F9521965   4.689   2.885   0.226  0.2670 -0.4689 -0.3543
  207TF     F9621966   4.517   2.768   0.195 -0.0958  0.1147  0.4599
  207TF     F9721967   4.591   2.890   0.039 -0.6643 -0.0108  0.4303
  207TF     N9821968   4.639   2.574   0.010 -0.2989 -0.2852 -0.3460
  207TF     S9921969   4.665   2.416  -0.007 -0.2050 -0.1996  0.3025
  207TF    O91021970   4.552   2.339   0.014  0.5536  0.1584  0.2503
  207TF    O91121971   4.791   2.382   0.051  0.4458  0.9106 -0.0452
  207TF     C9Z21972   4.680   2.405  -0.194  0.0520  0.2049  0.2576
  207TF    F91321973   4.571   2.464  -0.246  0.2234  0.0231  0.3274
  207TF    F91421974   4.781   2.461  -0.258 -0.0566  0.6270 -0.1280
  207TF    F91521975   4.685   2.285  -0.243 -0.2642 -0.3801  0.0280
  208TF     S9121976   3.347   2.363   6.005  0.0293 -0.0165 -0.2450
  208TF     O9221977   3.340   2.308   5.871  0.2477  0.0975 -0.0900
  208TF     O9321978   3.310   2.273   6.114 -0.1246 -0.1343  0.1210
  208TF     C9Z21979   3.531   2.404   6.029  0.2636 -0.1633  0.6193
  208TF     F9521980   3.563   2.466   6.146 -0.4167 -0.0827 -0.6627
  208TF     F9621981   3.584   2.476   5.930 -0.3198  0.4152 -0.9671
  208TF     F9721982   3.597   2.290   6.017 -0.2629 -0.2505 -0.1677
  208TF     N9821983   3.287   2.502   6.025 -0.0464  0.6114  0.6709
  208TF     S9921984   3.162   2.549   5.941 -0.4265 -0.0440 -0.0938
  208TF    O91021985   3.062   2.441   5.955  0.3679  0.0107 -0.2321
  208TF    O91121986   3.194   2.594   5.808 -0.3515 -0.1437  0.8601
  208TF     C9Z21987   3.093   2.702   6.022 -0.1185 -0.0425  0.0864
  208TF    F91321988   2.982   2.741   5.967 -0.0404  0.3897 -0.0954
  208TF    F91421989   3.067   2.686   6.155 -0.1041  0.3256 -0.5139
  208TF    F91521990   3.166   2.808   6.025 -0.6419  0.3822  0.3240
  209TF     S9121991   6.569   4.000   0.945  0.1657 -0.0941  0.2872
  209TF     O9221992   6.515   4.073   1.059 -0.2656  0.5250  1.2421
  209TF     O9321993   6.524   3.865   0.925 -0.3607 -0.2590  0.5013
  209TF     C9Z21994   6.490   4.101   0.811  0.1510  0.9555 -0.4314
  209TF     F9521995   6.536   4.068   0.698 -0.0530 -0.1064  0.4311
  209TF     F9621996   6.510   4.233   0.818 -0.1409  0.0903 -0.3307
  209TF     F9721997   6.357   4.092   0.804 -0.5432 -0.5797  0.3804
  209TF     N9821998   6.717   4.022   0.935  0.6461 -0.1240 -0.0324
  209TF     S9921999   6.797   3.898   0.886 -0.0784  0.3603  0.0372
  209TF    O91022000   6.743   3.848   0.762  0.0603  0.3305 -0.2500
  209TF    O91122001   6.820   3.804   0.994 -0.1897  0.4965 -0.3073
  209TF     C9Z22002   6.962   3.972   0.850 -0.0382 -0.5262  0.6089
  209TF    F91322003   6.937   4.090   0.787 -0.2026  0.2792 -0.0795
  209TF    F91422004   7.021   4.005   0.965 -0.3669  0.1673  0.3342
  209TF    F91522005   7.055   3.907   0.779  0.2009 -0.0053  0.1377
  210TF     S9122006   3.939   6.100   5.520  0.5615 -0.0063  0.5100
  210TF     O9222007   4.002   5.973   5.502 -0.4440 -0.0039  0.2259
  210TF     O9322008   4.026   6.218   5.509 -0.4652  0.6806  0.1641
  210TF     C9Z22009   3.824   6.112   5.372 -0.5394  0.1963 -0.9532
  210TF     F9522010   3.891   6.121   5.257  0.6771 -0.2929  0.1949
  210TF     F9622011   3.743   6.215   5.376 -0.1888 -0.6189 -0.1195
  210TF     F9722012   3.747   6.007   5.365  0.0261  0.3649 -0.1605
  210TF     N9822013   3.845   6.111   5.639  0.2444  0.4306 -0.1328
  210TF     S9922014   3.870   6.027   5.766 -0.0799 -0.0794 -0.0867
  210TF    O91022015   4.006   6.032   5.820  0.3327  0.5312  0.2815
  210TF    O91122016   3.803   5.899   5.752 -0.3582 -0.7514  0.4041
  210TF     C9Z22017   3.763   6.116   5.886  0.5017  0.4065 -0.6737
  210TF    F91322018   3.737   6.037   5.986 -0.4796  0.3318 -0.5841
  210TF    F91422019   3.813   6.226   5.935  0.0702  0.8145 -0.0843
  210TF    F91522020   3.646   6.167   5.849 -0.1374 -0.1615 -0.0156
  211TF     S9122021   4.843   1.958   3.783  0.0267 -0.0339 -0.4011
  211TF     O9222022   4.977   2.001   3.815 -0.1001 -0.1411 -0.5061
  211TF     O9322023   4.756   1.898   3.879 -0.5503 -0.0316  0.1560
  211TF     C9Z22024   4.749   2.112   3.744 -0.6386  0.6634 -0.1253
  211TF     F9522025   4.620   2.081   3.719 -0.1998  0.3287 -0.2613
  211TF     F9622026   4.799   2.175   3.639  0.0819  0.4567  0.3962
  211TF     F9722027   4.747   2.201   3.842  0.3597 -0.0554 -0.3348
  211TF     N9822028   4.833   1.875   3.653  0.7631  0.3534  0.9044
  211TF     S9922029   4.868   1.728   3.659 -0.0516 -0.5631  0.3037
  211TF    O91022030   4.921   1.669   3.784  0.1983 -0.8241  0.2124
  211TF    O91122031   4.956   1.689   3.549  0.4629  0.1117  0.3580
  211TF     C9Z22032   4.703   1.642   3.613 -0.3346  0.4671  0.1108
  211TF    F91322033   4.675   1.561   3.709  0.1548 -0.2786  0.1164
  211TF    F91422034   4.599   1.722   3.595 -0.1426 -0.1373  0.5899
  211TF    F91522035   4.705   1.573   3.499 -0.4709 -0.5011  0.7960
  212TF     S9122036   1.458   0.965   1.224  0.0444  0.1955 -0.0259
  212TF     O9222037   1.330   0.994   1.288 -0.0559 -0.1804 -0.1123
  212TF     O9322038   1.569   0.960   1.311  0.2503 -0.0320 -0.1603
  212TF     C9Z22039   1.443   0.786   1.173 -0.4225 -0.0398  0.1585
  212TF     F9522040   1.389   0.715   1.269 -0.3797  0.1310 -0.5479
  212TF     F9622041   1.562   0.728   1.143 -0.1316  0.0964 -0.2054
  212TF     F9722042   1.375   0.772   1.059  0.2690 -0.0995  0.9101
  212TF     N9822043   1.488   1.048   1.095  0.1715  0.2986  0.0942
  212TF     S9922044   1.571   1.179   1.093  0.2902 -0.3013 -0.0087
  212TF    O91022045   1.688   1.173   1.010 -0.3064 -0.7664  0.7581
  212TF    O91122046   1.582   1.234   1.222 -0.2810  0.1345 -0.7173
  212TF     C9Z22047   1.447   1.290   1.006 -0.2153 -0.1993  0.4087
  212TF    F91322048   1.323   1.265   1.049  0.0277  0.1492 -0.1144
  212TF    F91422049   1.471   1.419   1.032  0.0680 -0.0814  0.8307
  212TF    F91522050   1.446   1.289   0.875 -0.1396 -0.0306 -0.0957
  213TF     S9122051   3.325   4.632   3.562  0.0457  0.1941 -0.4321
  213TF     O9222052   3.317   4.564   3.687 -0.0847  0.7584  0.6554
  213TF     O9322053   3.457   4.675   3.519 -0.7559  0.3264  0.2220
  213TF     C9Z22054   3.262   4.527   3.419 -0.6107  0.5101  0.5148
  213TF     F9522055   3.137   4.480   3.438 -0.1708  0.9421 -0.3908
  213TF     F9622056   3.337   4.421   3.413  0.2573  0.3214 -0.0868
  213TF     F9722057   3.275   4.590   3.299 -0.3518 -0.0048  0.1303
  213TF     N9822058   3.225   4.746   3.561  0.0858 -0.2382 -0.2583
  213TF     S9922059   3.267   4.896   3.561 -0.2678  0.0722  0.0643
  213TF    O91022060   3.349   4.931   3.448 -0.5721 -0.1573 -0.5660
  213TF    O91122061   3.305   4.947   3.690 -0.5844 -0.0728  0.5524
  213TF     C9Z22062   3.105   4.975   3.525 -0.3847  0.1747 -0.2774
  213TF    F91322063   3.077   4.952   3.402  0.1232 -0.3798  0.3102
  213TF    F91422064   3.008   4.917   3.592  0.1875  0.1055 -0.0930
  213TF    F91522065   3.075   5.107   3.545 -0.4585 -0.0894  0.0206
  214TF     S9122066   6.038   4.422   0.878  0.2790  0.2603  0.0837
  214TF     O9222067   6.118   4.535   0.924 -0.5149 -0.0068 -0.2766
  214TF     O9322068   5.895   4.433   0.875  0.3637  0.2239 -0.2435
  214TF     C9Z22069   6.078   4.395   0.702  0.6038 -0.7518 -0.0736
  214TF     F9522070   6.203   4.392   0.679  0.2629  0.0889  0.2408
  214TF     F9622071   6.041   4.496   0.629  0.6161 -0.4612 -0.2297
  214TF     F9722072   6.027   4.284   0.657  0.0052  0.0529  0.4546
  214TF     N9822073   6.073   4.292   0.958  0.0640  0.5864  0.0413
  214TF     S9922074   6.178   4.293   1.075 -0.2102  0.1266  0.2267
  214TF    O91022075   6.139   4.366   1.192 -0.0562  0.3993 -0.2579
  214TF    O91122076   6.313   4.322   1.028 -0.3609 -0.1105 -0.0592
  214TF     C9Z22077   6.200   4.115   1.132  0.6277  0.2152  0.1083
  214TF    F91322078   6.079   4.073   1.165 -0.5261 -0.4050 -0.4687
  214TF    F91422079   6.236   4.033   1.036 -0.2164  0.1260  0.3813
  214TF    F91522080   6.278   4.076   1.235  0.4809  0.0722 -0.2011
  215TF     S9122081   1.855   1.747   0.546 -0.1190 -0.1709 -0.0826
  215TF     O9222082   1.785   1.866   0.596 -0.0560 -0.2081  0.1801
  215TF     O9322083   1.862   1.733   0.405 -0.2221  0.1346  0.7511
  215TF     C9Z22084   2.032   1.762   0.605  0.1092 -0.0650  1.1420
  215TF     F9522085   2.086   1.874   0.558  0.1469 -0.2233 -0.0279
  215TF     F9622086   2.109   1.665   0.556  0.7006  0.2341  0.4803
  215TF     F9722087   2.048   1.762   0.738  0.3044  0.6380  0.0851
  215TF     N9822088   1.802   1.612   0.601 -0.3237 -0.5284 -0.1952
  215TF     S9922089   1.644   1.587   0.615 -0.0074  0.2156 -0.0742
  215TF    O91022090   1.610   1.450   0.590  0.1831 -0.3828 -0.3662
  215TF    O91122091   1.559   1.685   0.546 -0.0271  0.0996 -0.0432
  215TF     C9Z22092   1.605   1.619   0.794  0.3454  0.4641 -0.9051
  215TF    F91322093   1.472   1.612   0.825  0.3484  0.0014  0.7757
  215TF    F91422094   1.661   1.526   0.873  0.2521 -0.1805 -0.6372
  215TF    F91522095   1.630   1.736   0.849 -0.0252 -0.5494  0.1788
  216TF     S9122096   0.453   3.643   0.178  0.0036 -0.1792 -0.3088
  216TF     O9222097   0.452   3.702   0.308  0.3069  0.4017 -0.1444
  216TF     O9322098   0.371   3.525   0.157  0.3215  0.2608  0.0826
  216TF     C9Z22099   0.386   3.772   0.069  0.5217 -0.4106  0.0857
  216TF     F9522100   0.434   3.895   0.067 -0.0650 -0.1677  0.3462
  216TF     F9622101   0.260   3.789   0.096  0.1629  0.1443 -0.2180
  216TF     F9722102   0.396   3.738  -0.059 -0.4057 -0.0476 -0.7847
  216TF     N9822103   0.598   3.627   0.120 -0.0589 -0.3097 -0.0016
  216TF     S9922104   0.724   3.701   0.172  0.1616 -0.1532  0.2237
  216TF    O91022105   0.807   3.607   0.244 -0.1200 -0.7487  0.3650
  216TF    O91122106   0.712   3.827   0.243  0.0647  0.1526  0.2206
  216TF     C9Z22107   0.810   3.736   0.017 -0.2783 -0.9426  0.6704
  216TF    F91322108   0.847   3.619  -0.030  0.2469  0.1102 -1.0341
  216TF    F91422109   0.731   3.795  -0.076 -0.0066  0.3934 -0.2397
  216TF    F91522110   0.918   3.813   0.022  0.0672  0.0095 -0.1551
  217TF     S9122111   1.035   0.202   0.095  0.0807  0.0554 -0.0187
  217TF     O9222112   0.940   0.144   0.003 -0.1569 -0.5767  0.1704
  217TF     O9322113   1.122   0.309   0.049  0.5367 -0.2693 -0.8337
  217TF     C9Z22114   0.923   0.293   0.219 -0.7923  0.4384  0.1084
  217TF     F9522115   0.849   0.207   0.288  0.2924 -0.2115 -0.0263
  217TF     F9622116   0.852   0.377   0.147 -0.1541 -0.3588 -0.1498
  217TF     F9722117   0.991   0.368   0.308 -0.4583 -0.7726 -0.1674
  217TF     N9822118   1.113   0.103   0.188 -0.1697  0.1116  0.0726
  217TF     S9922119   1.092  -0.052   0.193 -0.0024  0.0052 -0.5442
  217TF    O91022120   1.210  -0.112   0.140  0.1675 -0.1337  0.1024
  217TF    O91122121   0.958  -0.100   0.156 -0.4002 -0.0815 -0.7204
  217TF     C9Z22122   1.093  -0.090   0.379  0.4117  0.3573  0.3594
  217TF    F91322123   1.200  -0.036   0.441 -0.4897  0.3245 -0.2475
  217TF    F91422124   0.985  -0.044   0.441  0.3917  0.5216  0.4998
  217TF    F91522125   1.098  -0.218   0.411 -0.2272  0.3644  0.2896
  218TF     S9122126   0.038   3.883   5.497  0.0979  0.1566  0.2990
  218TF     O9222127  -0.098   3.849   5.517 -0.4306  0.1203 -0.9653
  218TF     O9322128   0.134   3.804   5.570 -0.7725  0.8150 -0.4670
  218TF     C9Z22129   0.066   3.840   5.322  0.1315  0.1950  0.1168
  218TF     F9522130   0.108   3.711   5.312 -0.0909  0.0374  0.0437
  218TF     F9622131   0.154   3.918   5.259  0.2063  0.1809 -0.1185
  218TF     F9722132  -0.046   3.846   5.247  0.0199  0.1721 -0.3938
  218TF     N9822133   0.062   4.038   5.502 -0.2812  0.0287 -0.9365
  218TF     S9922134  -0.024   4.144   5.576 -0.4395 -0.1195 -0.1208
  218TF    O91022135   0.045   4.215   5.678  0.2513  1.0694  0.4645
  218TF    O91122136  -0.157   4.104   5.599  0.1207 -0.2015  0.0665
  218TF     C9Z22137  -0.043   4.280   5.445  0.3041 -0.4490  0.0592
  218TF    F91322138  -0.107   4.375   5.503  0.4673 -0.2341 -0.2945
  218TF    F91422139   0.076   4.338   5.407  0.0145 -0.8823  0.3826
  218TF    F91522140  -0.114   4.247   5.333  0.1504  0.4889 -0.1580
  219TF     S9122141   5.532   6.489   2.491  0.2258 -0.0996  0.0279
  219TF     O9222142   5.393   6.484   2.537 -0.7760 -0.5329  0.2717
  219TF     O9322143   5.598   6.617   2.512 -0.0185 -0.1370  0.3391
  219TF     C9Z22144   5.623   6.371   2.596  0.5279 -0.1984 -0.3914
  219TF     F9522145   5.598   6.396   2.726  0.3978  0.2026 -0.2333
  219TF     F9622146   5.753   6.386   2.581 -0.1271  0.2173 -0.2137
  219TF     F9722147   5.594   6.240   2.571 -0.3600 -0.1363  0.1329
  219TF     N9822148   5.547   6.425   2.347  0.4877 -0.5357 -0.2035
  219TF     S9922149   5.600   6.520   2.237 -0.5743 -0.4759 -0.2009
  219TF    O91022150   5.730   6.571   2.258  0.8101  0.4728 -0.3021
  219TF    O91122151   5.500   6.619   2.206  0.2935  0.7429  0.4264
  219TF     C9Z22152   5.619   6.407   2.089 -0.1605  0.6360  0.0182
  219TF    F91322153   5.671   6.462   1.984  0.2008 -0.1780 -0.3843
  219TF    F91422154   5.700   6.309   2.124 -0.1250  0.7824 -0.3094
  219TF    F91522155   5.512   6.347   2.052  0.5526  1.0692  0.1374
  220TF     S9122156   2.583   5.562   5.923  0.3071 -0.1133 -0.4044
  220TF     O9222157   2.709   5.499   5.948  0.7513 -0.0357 -0.5146
  220TF     O9322158   2.555   5.698   5.961  0.2624 -0.0403 -0.5424
  220TF     C9Z22159   2.579   5.579   5.746  0.2494  0.3896  0.4640
  220TF     F9522160   2.462   5.617   5.706  1.0493 -0.5512  0.2977
  220TF     F9622161   2.617   5.467   5.680  0.8280  0.1917 -0.2352
  220TF     F9722162   2.662   5.675   5.720 -0.5104 -0.1719  0.0154
  220TF     N9822163   2.469   5.463   5.950 -0.3486  0.1591 -0.1006
  220TF     S9922164   2.369   5.481   6.077 -0.0372  0.5248 -0.0374
  220TF    O91022165   2.297   5.605   6.074  0.2309  0.3432  0.4459
  220TF    O91122166   2.433   5.434   6.196 -0.0161  0.0537 -0.0632
  220TF     C9Z22167   2.240   5.357   6.053 -0.0436 -1.0902  0.5634
  220TF    F91322168   2.149   5.405   5.962  0.6535 -0.0539 -0.1573
  220TF    F91422169   2.303   5.249   6.011 -0.4122 -0.2043  0.4080
  220TF    F91522170   2.167   5.321   6.155  0.3453 -0.5139 -0.0285
  221TF     S9122171   6.501   2.929   2.878 -0.2113 -0.0682  0.3332
  221TF     O9222172   6.544   2.814   2.953 -0.2462  0.5771  0.0211
  221TF     O9322173   6.365   2.933   2.834  0.3505  0.4166  0.0649
  221TF     C9Z22174   6.517   3.073   2.989 -0.8150  0.2685 -0.6154
  221TF     F9522175   6.511   3.193   2.935 -0.2379 -0.2439  0.4284
  221TF     F9622176   6.641   3.064   3.043  0.0293  0.2307 -0.3303
  221TF     F9722177   6.426   3.073   3.081  0.3000 -0.1971 -0.0838
  221TF     N9822178   6.603   2.970   2.769  0.9197 -0.2244 -0.3870
  221TF     S9922179   6.612   2.882   2.640  0.5640 -0.1884  0.5429
  221TF    O91022180   6.642   2.961   2.520  0.0768 -0.4934 -0.3592
  221TF    O91122181   6.503   2.789   2.628 -0.8158  0.6830 -0.5299
  221TF     C9Z22182   6.766   2.782   2.675 -0.1403 -0.2198  0.0989
  221TF    F91322183   6.784   2.686   2.583  0.9487 -0.2955  0.5156
  221TF    F91422184   6.875   2.860   2.688 -0.0615 -0.9183  0.5262
  221TF    F91522185   6.760   2.729   2.798  0.1498 -0.4464 -0.2222
  222TF     S9122186   2.745   2.205   4.677 -0.3181 -0.0459 -0.3543
  222TF     O9222187   2.641   2.279   4.610  0.0724  0.3102  0.4788
  222TF     O9322188   2.777   2.247   4.810 -0.2849  0.0254 -0.8462
  222TF     C9Z22189   2.680   2.032   4.694 -0.1584 -0.4695  0.9194
  222TF     F9522190   2.571   2.021   4.771  0.2133 -0.2276 -0.3530
  222TF     F9622191   2.779   1.959   4.745  0.1927 -0.3635  0.1587
  222TF     F9722192   2.648   1.976   4.583  0.4330  0.5390 -0.2702
  222TF     N9822193   2.872   2.179   4.589  0.2442 -0.0691  0.5581
  222TF     S9922194   2.886   2.243   4.450  0.0288  0.2325 -0.0888
  222TF    O91022195   2.878   2.390   4.454 -0.9820 -0.5248 -0.0297
  222TF    O91122196   2.806   2.175   4.350  0.0095 -0.5883 -0.3159
  222TF     C9Z22197   3.063   2.206   4.415  0.3582 -0.4133  0.5560
  222TF    F91322198   3.078   2.094   4.350 -0.5773  0.2440  0.2389
  222TF    F91422199   3.116   2.303   4.338 -0.4572 -0.1522  0.3938
  222TF    F91522200   3.147   2.195   4.518  0.4466 -0.0108 -0.1176
  223TF     S9122201   6.414   0.035   1.798 -0.3542  0.5839 -0.5727
  223TF     O9222202   6.467  -0.098   1.762  0.1299  0.2187 -0.4481
  223TF     O9322203   6.367   0.058   1.933 -0.0723  0.4503 -0.0699
  223TF     C9Z22204   6.560   0.142   1.799 -0.6869 -0.3534  0.1319
  223TF     F9522205   6.533   0.265   1.830 -0.0058  0.9478 -0.5584
  223TF     F9622206   6.618   0.142   1.680  0.4424  0.0147 -0.4326
  223TF     F9722207   6.657   0.112   1.878 -0.0924  0.2888  0.2183
  223TF     N9822208   6.326   0.091   1.692  0.1676 -0.5029  0.4275
  223TF     S9922209   6.175   0.054   1.690 -0.0691  0.0117  0.6763
  223TF    O91022210   6.098   0.166   1.744  0.4565 -0.3990 -0.1768
  223TF    O91122211   6.152  -0.078   1.729  0.1560  0.4948  0.3461
  223TF     C9Z22212   6.133   0.061   1.505  0.3956  0.2705  0.1919
  223TF    F91322213   6.138   0.188   1.458  0.0700  0.0129 -0.1633
  223TF    F91422214   6.225  -0.004   1.438 -0.0641  0.2520  0.4028
  223TF    F91522215   6.015   0.010   1.473  0.4010 -0.1642 -0.3856
  224TF     S9122216   6.094   6.468   1.623 -0.1511  0.0272  0.3112
  224TF     O9222217   6.085   6.408   1.490  0.4985  0.2208  0.1048
  224TF     O9322218   6.193   6.567   1.642 -0.1327 -0.2988  1.0625
  224TF     C9Z22219   5.930   6.550   1.652  0.4797  0.3198  0.0612
  224TF     F9522220   5.931   6.650   1.737 -0.3344  0.2569 -0.2015
  224TF     F9622221   5.841   6.463   1.700  0.2428  0.0519  0.3679
  224TF     F9722222   5.875   6.603   1.538 -0.0418 -0.0539  0.2004
  224TF     N9822223   6.103   6.357   1.729 -0.3009 -0.1687 -0.1182
  224TF     S9922224   6.216   6.247   1.717 -0.2851  0.2306  0.2022
  224TF    O91022225   6.256   6.210   1.849  0.0864 -0.1662 -0.0152
  224TF    O91122226   6.315   6.278   1.617  0.1898  0.5918 -0.3846
  224TF     C9Z22227   6.129   6.097   1.659  0.3663 -0.0608  0.3757
  224TF    F91322228   6.109   6.087   1.528  0.0975 -0.7741 -0.0734
  224TF    F91422229   6.182   5.980   1.699  0.0898  0.1280  0.2966
  224TF    F91522230   6.006   6.089   1.700 -0.1591 -0.2837  0.1226
  225TF     S9122231   1.995   5.605   2.765  0.2501  0.2443 -0.3535
  225TF     O9222232   2.034   5.551   2.641  0.1518 -0.5362  0.0280
  225TF     O9322233   2.106   5.638   2.853 -0.1495 -0.4973  0.0552
  225TF     C9Z22234   1.908   5.766   2.731  0.1133  0.0319 -0.0577
  225TF     F9522235   1.801   5.752   2.655 -0.2687  0.4429  0.0060
  225TF     F9622236   1.986   5.853   2.671  0.5550  0.5400 -0.5013
  225TF     F9722237   1.871   5.824   2.846 -0.2903  0.0806 -0.0927
  225TF     N9822238   1.892   5.510   2.833  0.0065 -0.7108  0.2549
  225TF     S9922239   1.889   5.490   2.987  0.0909  0.2779 -0.1986
  225TF    O91022240   1.884   5.616   3.059  0.8151 -0.0340 -0.0236
  225TF    O91122241   1.992   5.391   3.021  0.1529 -0.0316 -0.0366
  225TF     C9Z22242   1.728   5.405   3.014  0.4913 -0.1961 -0.2060
  225TF    F91322243   1.634   5.458   2.935 -0.7579  0.4023 -0.3665
  225TF    F91422244   1.742   5.281   2.962 -0.1837  0.0940  0.5655
  225TF    F91522245   1.675   5.382   3.134  0.4903  0.4293  0.6261
  226TF     S9122246   3.123   3.334   5.586  0.0860  0.2437 -0.2490
  226TF     O9222247   3.253   3.379   5.549 -0.2597 -0.0054  0.5130
  226TF     O9322248   3.080   3.211   5.527 -0.0718  0.3589  0.8384
  226TF     C9Z22249   3.143   3.280   5.761 -0.6047  1.2560 -0.0200
  226TF     F9522250   3.029   3.243   5.817 -0.0462  0.6261  0.2294
  226TF     F9622251   3.195   3.368   5.839  0.0168  0.0486 -0.5179
  226TF     F9722252   3.223   3.178   5.770  0.2062  0.1220  0.3830
  226TF     N9822253   3.007   3.439   5.598 -0.0314  0.0335  0.0958
  226TF     S9922254   2.884   3.446   5.508 -0.0797 -0.0972 -0.2138
  226TF    O91022255   2.764   3.453   5.587  0.0180  0.2027  0.3605
  226TF    O91122256   2.886   3.352   5.393  0.1322 -0.0696  0.3973
  226TF     C9Z22257   2.898   3.619   5.435 -0.2024  0.0039 -0.2519
  226TF    F91322258   3.001   3.632   5.350 -0.0665  0.1267 -0.2687
  226TF    F91422259   2.779   3.657   5.377  0.0701  0.4486 -0.5891
  226TF    F91522260   2.918   3.690   5.546  0.2852  0.1491 -0.2562
  227TF     S9122261   5.016   1.897   1.731  0.2431  0.0970 -0.1761
  227TF     O9222262   4.962   1.817   1.627 -0.0559  0.5674  0.0703
  227TF     O9322263   4.939   2.019   1.758 -0.3899  0.0825 -0.2707
  227TF     C9Z22264   5.000   1.808   1.890 -0.7727 -0.0518  0.2467
  227TF     F9522265   5.064   1.875   1.988 -0.2494 -0.4370  0.0382
  227TF     F9622266   5.040   1.681   1.887 -0.2340  0.5642  0.2983
  227TF     F9722267   4.873   1.797   1.933  0.5268 -0.3099 -0.3961
  227TF     N9822268   5.169   1.922   1.715  0.0003  0.0295  0.6117
  227TF     S9922269   5.230   2.061   1.652  0.0474  0.2136 -0.0946
  227TF    O91022270   5.130   2.136   1.588  0.1998  0.3215 -0.4686
  227TF    O91122271   5.353   2.033   1.581  0.1667 -0.0541  0.3969
  227TF     C9Z22272   5.296   2.150   1.800  0.6428  0.0679  0.3237
  227TF    F91322273   5.347   2.268   1.772  0.2801  0.4124 -0.8333
  227TF    F91422274   5.193   2.178   1.886  0.1916  0.1796  0.4289
  227TF    F91522275   5.383   2.096   1.885 -0.1191  0.3469  0.0524
  228TF     S9122276   4.569   1.636   1.552  0.3135  0.0506  0.0111
  228TF     O9222277   4.552   1.741   1.454  0.2401  0.2595 -0.3146
  228TF     O9322278   4.692   1.562   1.539  0.3123  0.3435 -0.3454
  228TF     C9Z22279   4.592   1.731   1.711  0.0602 -0.1378  0.2671
  228TF     F9522280   4.688   1.821   1.681  0.2781  0.0290  0.0922
  228TF     F9622281   4.641   1.670   1.820  0.2957 -0.3110 -0.7442
  228TF     F9722282   4.483   1.799   1.747 -0.0459  0.1206  0.4290
  228TF     N9822283   4.435   1.561   1.569 -0.4429 -0.1157  0.1815
  228TF     S9922284   4.376   1.463   1.469  0.1320 -0.0573 -0.1131
  228TF    O91022285   4.354   1.334   1.535 -0.8767  0.0246 -0.3592
  228TF    O91122286   4.444   1.476   1.343 -0.4990 -0.1238 -0.0243
  228TF     C9Z22287   4.201   1.530   1.442 -0.1984 -0.1811 -0.5968
  228TF    F91322288   4.117   1.485   1.536  0.0085 -0.0391 -0.0039
  228TF    F91422289   4.196   1.662   1.459  0.3229 -0.2615  0.0058
  228TF    F91522290   4.133   1.503   1.329  0.0054  0.0278  0.2737
  229TF     S9122291   6.900   3.078   4.303 -0.4206 -0.3803 -0.2082
  229TF     O9222292   7.018   3.155   4.290  0.1207  0.4223 -0.1197
  229TF     O9322293   6.773   3.137   4.307 -0.3552 -0.1795  0.1322
  229TF     C9Z22294   6.885   2.975   4.148 -0.1905 -0.6685  0.6851
  229TF     F9522295   6.823   2.859   4.156  0.4258  0.2251 -0.2204
  229TF     F9622296   7.000   2.952   4.090 -0.1405 -0.2866 -0.0949
  229TF     F9722297   6.812   3.029   4.056 -0.0328  0.2169  0.1401
  229TF     N9822298   6.916   2.978   4.417 -0.3643  0.1154 -0.2337
  229TF     S9922299   6.804   2.971   4.527 -0.1479  0.1017 -0.1847
  229TF    O91022300   6.678   2.911   4.496 -0.0841 -0.3091 -0.2115
  229TF    O91122301   6.795   3.096   4.603 -0.3846 -0.0329  0.4171
  229TF     C9Z22302   6.889   2.855   4.646  0.4316  0.3659  0.8349
  229TF    F91322303   7.015   2.891   4.654  0.2939  0.2360  0.4533
  229TF    F91422304   6.841   2.878   4.768  0.0809  0.7651  0.1807
  229TF    F91522305   6.889   2.720   4.636 -0.0673 -0.4943  0.2713
  230TF     S9122306   6.825   0.707   0.501  0.1033 -0.0805 -0.3765
  230TF     O9222307   6.800   0.609   0.395 -0.4583  0.2667 -0.1717
  230TF     O9322308   6.711   0.728   0.593 -0.3016  0.8047  0.6537
  230TF     C9Z22309   6.960   0.633   0.604  0.3514 -0.9467 -1.0101
  230TF     F9522310   7.077   0.637   0.541 -0.4049  0.2580 -0.2365
  230TF     F9622311   6.928   0.512   0.643 -0.1889 -0.1846  0.0657
  230TF     F9722312   6.975   0.703   0.715  0.5859  0.4952 -0.3636
  230TF     N9822313   6.891   0.832   0.443 -0.3615 -0.4555  0.0326
  230TF     S9922314   6.818   0.959   0.390 -0.1507  0.1687  0.3096
  230TF    O91022315   6.673   0.959   0.398  0.2337 -0.2771  0.1664
  230TF    O91122316   6.877   0.996   0.269  0.4054  0.4253  0.2709
  230TF     C9Z22317   6.870   1.084   0.510  0.1401  0.0581  0.7220
  230TF    F91322318   6.808   1.201   0.477  0.4002 -0.2238 -0.1292
  230TF    F91422319   6.820   1.049   0.630 -0.3258 -0.4696  0.0180
  230TF    F91522320   6.999   1.109   0.530  0.1230 -0.3434 -0.2903
  231TF     S9122321   4.676   0.958   1.237  0.0048  0.3296 -0.2839
  231TF     O9222322   4.725   1.088   1.188  0.1164  0.2571 -0.1946
  231TF     O9322323   4.547   0.949   1.298  0.3892  0.0967 -0.3171
  231TF     C9Z22324   4.659   0.860   1.082 -0.2783  0.3032 -0.0783
  231TF     F9522325   4.608   0.929   0.986  0.1899  0.1573  0.5647
  231TF     F9622326   4.579   0.751   1.095  0.6621 -0.3793  0.4649
  231TF     F9722327   4.776   0.818   1.032  0.2639 -0.1056 -0.6530
  231TF     N9822328   4.776   0.864   1.310 -0.0976 -0.0181 -0.5066
  231TF     S9922329   4.923   0.905   1.345  0.0186  0.1002 -0.0462
  231TF    O91022330   4.927   0.952   1.486 -0.0181 -0.1635 -0.4078
  231TF    O91122331   4.986   0.985   1.244 -0.1931 -0.8598  0.1895
  231TF     C9Z22332   5.023   0.751   1.339 -0.0378  0.5954 -0.2243
  231TF    F91322333   5.024   0.691   1.219  0.4439 -0.0785  0.4630
  231TF    F91422334   5.155   0.769   1.356  0.0972 -0.3769  0.4519
  231TF    F91522335   4.987   0.655   1.430  0.0501  0.1390  0.2006
  232TF     S9122336   2.108   6.540   0.384 -0.4044 -0.1402  0.3568
  232TF     O9222337   2.059   6.548   0.522 -0.2703 -0.1159 -0.0697
  232TF     O9322338   2.237   6.483   0.362 -0.3161 -0.2258  0.2768
  232TF     C9Z22339   2.006   6.413   0.301  0.2190  0.4972  0.3837
  232TF     F9522340   2.026   6.419   0.172  0.2762 -0.1326  0.1869
  232TF     F9622341   1.879   6.428   0.329  0.0686  0.1210  0.3732
  232TF     F9722342   2.037   6.284   0.341 -0.3013 -0.3687  0.5093
  232TF     N9822343   2.077   6.665   0.293  0.3947  0.0133 -0.5823
  232TF     S9922344   2.154   6.796   0.316  0.0086  0.3756  0.1161
  232TF    O91022345   2.256   6.808   0.217 -0.4957 -0.3278  0.1089
  232TF    O91122346   2.191   6.835   0.449  0.2318 -0.3762  0.4527
  232TF     C9Z22347   2.017   6.912   0.266 -0.5577  0.4594  0.1277
  232TF    F91322348   1.907   6.908   0.342 -0.5875 -0.0617 -0.1155
  232TF    F91422349   2.067   7.037   0.288  0.2860  0.2919  0.2932
  232TF    F91522350   1.978   6.906   0.138  0.1456  0.3543 -0.4946
  233TF     S9122351   5.257   4.551   0.143  0.0245  0.1346  0.0509
  233TF     O9222352   5.264   4.423   0.079  0.1435  0.5732  0.3715
  233TF     O9322353   5.160   4.644   0.096 -0.2719  0.5110 -0.2048
  233TF     C9Z22354   5.189   4.505   0.310  0.1232 -0.2053 -0.7340
  233TF     F9522355   5.188   4.610   0.387  0.1214 -0.0514  0.3521
  233TF     F9622356   5.263   4.412   0.364 -0.5907  0.3532  0.1641
  233TF     F9722357   5.066   4.462   0.301  0.6371  0.3089 -0.1375
  233TF     N9822358   5.396   4.606   0.166 -0.6106 -0.8988 -0.3142
  233TF     S9922359   5.448   4.723   0.084 -0.0811 -0.1263  0.2629
  233TF    O91022360   5.402   4.846   0.141  0.4801  0.1871 -0.3732
  233TF    O91122361   5.428   4.709  -0.059 -1.0493 -0.2478 -0.1409
  233TF     C9Z22362   5.636   4.730   0.104  0.4499  0.4937  0.2390
  233TF    F91322363   5.668   4.756   0.225  0.2614  0.1395 -0.3909
  233TF    F91422364   5.697   4.618   0.072  0.8305  0.3600 -0.0356
  233TF    F91522365   5.682   4.822   0.025  0.0037 -0.3638  0.4154
  234TF     S9122366   5.575   1.738   1.814  0.3881  0.1580  0.2300
  234TF     O9222367   5.603   1.597   1.799 -0.1531  0.4175 -0.1837
  234TF     O9322368   5.540   1.801   1.689 -0.2311  0.3325  0.4347
  234TF     C9Z22369   5.435   1.746   1.940  0.2090  0.2680  0.6731
  234TF     F9522370   5.320   1.703   1.890  0.1084  0.0765  0.2255
  234TF     F9622371   5.418   1.868   1.991 -0.6052  0.3112 -0.6994
  234TF     F9722372   5.463   1.671   2.044  0.1613 -0.1295 -0.1270
  234TF     N9822373   5.693   1.814   1.878 -0.3298 -0.1714  0.8630
  234TF     S9922374   5.800   1.736   1.963  0.2876  0.1129 -0.1399
  234TF    O91022375   5.929   1.710   1.902  0.4004 -0.2440 -0.8167
  234TF    O91122376   5.742   1.628   2.034 -0.7090  0.2046  0.4779
  234TF     C9Z22377   5.834   1.854   2.108 -0.1274 -0.3140  0.4303
  234TF    F91322378   5.728   1.895   2.174 -0.2437  0.7546 -0.2807
  234TF    F91422379   5.920   1.808   2.196  0.2170 -0.2797 -0.5770
  234TF    F91522380   5.889   1.962   2.064 -0.6988  0.1898 -0.5597
  235TF     S9122381   1.091   4.210   4.118 -0.2354 -0.1207 -0.1801
  235TF     O9222382   1.090   4.067   4.113 -0.4370  0.4398 -0.5241
  235TF     O9322383   1.061   4.272   4.245 -0.2903 -0.8620 -0.0588
  235TF     C9Z22384   1.275   4.252   4.093 -0.1113 -0.6281 -0.1751
  235TF     F9522385   1.353   4.213   4.191  0.4634 -0.1765  0.4835
  235TF     F9622386   1.302   4.380   4.075  0.6561 -0.5482  0.3467
  235TF     F9722387   1.320   4.197   3.983  0.0163  0.3302 -0.2691
  235TF     N9822388   1.016   4.274   4.000  0.2782  0.6507  0.1819
  235TF     S9922389   0.893   4.362   4.028  0.5516  0.0209 -0.0327
  235TF    O91022390   0.931   4.492   4.084  0.1948 -0.0564 -0.1603
  235TF    O91122391   0.787   4.288   4.090  0.0797  0.1302 -0.2411
  235TF     C9Z22392   0.823   4.396   3.862 -0.4949  0.2784 -0.5140
  235TF    F91322393   0.918   4.450   3.782  0.5650 -0.3872  0.0306
  235TF    F91422394   0.790   4.283   3.805 -0.6643 -0.0563  0.2913
  235TF    F91522395   0.712   4.460   3.859 -0.1315  0.5124  0.3254
  236TF     S9122396   5.796   1.797   4.658 -0.1438 -0.8081  0.2726
  236TF     O9222397   5.907   1.850   4.577  0.4701 -0.0320 -0.3977
  236TF     O9322398   5.813   1.676   4.742  0.4670  0.4534  0.1451
  236TF     C9Z22399   5.770   1.934   4.783 -0.2839 -0.1462  0.0671
  236TF     F9522400   5.879   1.964   4.850 -0.0500  0.0987  0.3444
  236TF     F9622401   5.672   1.906   4.867  0.4165  0.0699  0.0461
  236TF     F9722402   5.746   2.044   4.716  0.6638  0.0205 -0.0813
  236TF     N9822403   5.663   1.793   4.590 -0.2832 -0.4341  0.1509
  236TF     S9922404   5.606   1.676   4.510  0.1486 -0.3185 -0.1625
  236TF    O91022405   5.481   1.627   4.559 -0.1475  0.1018  0.7429
  236TF    O91122406   5.709   1.578   4.499 -0.2572 -0.0740 -0.4851
  236TF     C9Z22407   5.588   1.752   4.341 -0.0225 -0.2612  0.0488
  236TF    F91322408   5.526   1.672   4.254 -0.1359 -0.2758  0.0388
  236TF    F91422409   5.526   1.870   4.350  0.2622  0.4639 -0.5643
  236TF    F91522410   5.711   1.779   4.288 -0.2931  0.2766  0.0427
  237TF     S9122411   3.446   4.862   4.574  0.7677  0.1941  0.1346
  237TF     O9222412   3.395   4.846   4.709 -0.3879 -0.1565 -0.8734
  237TF     O9322413   3.461   4.741   4.497  0.0955  0.8157  0.0721
  237TF     C9Z22414   3.316   4.963   4.480 -0.3771 -0.1511  0.1863
  237TF     F9522415   3.321   4.940   4.346 -0.0624 -0.3508 -0.0497
  237TF     F9622416   3.313   5.096   4.495  0.0758 -0.2581  0.4474
  237TF     F9722417   3.195   4.924   4.518 -0.7617 -0.6944 -0.1493
  237TF     N9822418   3.580   4.946   4.561 -0.2440 -0.1100 -0.3208
  237TF     S9922419   3.636   5.028   4.681  0.6505 -0.4234  0.1194
  237TF    O91022420   3.719   4.941   4.755 -0.3938  0.6265 -0.1995
  237TF    O91122421   3.532   5.101   4.752  0.5615 -0.2294  0.3255
  237TF     C9Z22422   3.743   5.151   4.599  0.0250 -0.1712 -0.7003
  237TF    F91322423   3.818   5.222   4.681  0.3022 -0.0680  0.2552
  237TF    F91422424   3.828   5.097   4.510  0.5018 -0.0675  0.3610
  237TF    F91522425   3.666   5.239   4.536 -0.3093  0.0544  0.3126
  238TF     S9122426   4.045   5.391   6.104  0.3698 -0.3453  0.2272
  238TF     O9222427   3.914   5.403   6.044  0.3928  0.6761 -0.9585
  238TF     O9322428   4.117   5.519   6.114  0.2722 -0.6857  0.1924
  238TF     C9Z22429   4.005   5.339   6.282  0.1959 -0.3379 -0.1990
  238TF     F9522430   3.930   5.415   6.359  0.2417  0.0100  0.0788
  238TF     F9622431   4.113   5.302   6.356  0.3630  0.5434  0.2857
  238TF     F9722432   3.931   5.228   6.277 -0.0699 -0.5398  0.0084
  238TF     N9822433   4.132   5.277   6.045 -0.4052 -0.6458 -0.1067
  238TF     S9922434   4.155   5.247   5.895 -0.5355 -0.1301  0.2626
  238TF    O91022435   4.101   5.353   5.814 -0.0161  0.3575 -0.5767
  238TF    O91122436   4.126   5.113   5.846 -0.0989  0.6792  0.1333
  238TF     C9Z22437   4.335   5.272   5.877  0.0359  0.0491 -0.2849
  238TF    F91322438   4.399   5.197   5.962 -0.0530  0.2144 -0.0690
  238TF    F91422439   4.381   5.226   5.760 -0.0511 -0.3819  0.4799
  238TF    F91522440   4.379   5.394   5.897 -0.1538  0.0229  0.0187
  239TF     S9122441   3.965   2.131   0.919 -0.2125 -0.3450 -0.1394
  239TF     O9222442   3.844   2.162   0.986  0.2427 -0.4796  0.2531
  239TF     O9322443   4.014   1.993   0.913  0.2160  0.0738 -0.5764
  239TF     C9Z22444   3.926   2.160   0.737 -0.4614 -0.0396  0.8811
  239TF     F9522445   3.840   2.071   0.680  0.3330 -0.5090  0.1069
  239TF     F9622446   4.031   2.169   0.662 -0.1804  0.2463 -0.1157
  239TF     F9722447   3.874   2.280   0.727 -0.0948 -0.2016 -0.0782
  239TF     N9822448   4.077   2.235   0.957  0.7549 -0.1408 -0.2569
  239TF     S9922449   4.133   2.232   1.105 -0.0240  0.0662 -0.0083
  239TF    O91022450   4.273   2.243   1.105  0.4329 -0.1855 -0.3352
  239TF    O91122451   4.070   2.126   1.182 -0.5020  0.0172 -0.3540
  239TF     C9Z22452   4.076   2.398   1.161 -0.2222 -0.2806  0.8735
  239TF    F91322453   4.106   2.497   1.085 -0.4908  0.2219  0.3586
  239TF    F91422454   3.950   2.406   1.164 -0.1576  0.1784 -0.4441
  239TF    F91522455   4.111   2.433   1.283 -0.7232 -0.2376 -0.1761
  240TF     S9122456   2.605   0.995   0.980 -0.4028 -0.2310 -0.0002
  240TF     O9222457   2.724   1.062   0.935  0.2589  0.1031 -0.0417
  240TF     O9322458   2.503   0.971   0.882  0.3057  0.6741 -0.6707
  240TF     C9Z22459   2.672   0.834   1.038 -0.2772 -0.1304  0.5525
  240TF     F9522460   2.740   0.853   1.152  0.5357 -0.6436  0.1300
  240TF     F9622461   2.758   0.799   0.944 -0.7299 -0.1097  0.7754
  240TF     F9722462   2.585   0.737   1.051 -0.2810 -0.6454 -0.1464
  240TF     N9822463   2.546   1.048   1.113 -0.2563 -0.2655 -0.2586
  240TF     S9922464   2.486   1.193   1.110  0.0373  0.0262  0.4125
  240TF    O91022465   2.511   1.260   0.984  0.1306  0.5996  0.6763
  240TF    O91122466   2.522   1.268   1.229  0.0486 -0.2215  0.1067
  240TF     C9Z22467   2.300   1.185   1.130 -0.3433  0.0550  0.0657
  240TF    F91322468   2.236   1.134   1.023 -0.4952 -0.1492 -0.1234
  240TF    F91422469   2.267   1.101   1.227  0.4211  0.3059  0.1003
  240TF    F91522470   2.228   1.293   1.156 -0.3187  0.5720  0.2090
  241TF     S9122471   0.689   1.495   5.489 -0.3409 -0.1610 -0.2078
  241TF     O9222472   0.588   1.584   5.445  0.8947 -0.6392 -0.2529
  241TF     O9322473   0.672   1.355   5.456 -0.2495  0.8155  0.1720
  241TF     C9Z22474   0.841   1.545   5.410  0.2067 -0.2519  0.9816
  241TF     F9522475   0.822   1.554   5.282  0.0523 -0.5956 -0.1617
  241TF     F9622476   0.934   1.457   5.432  0.0467 -0.2972  0.0226
  241TF     F9722477   0.882   1.661   5.456  0.2876  0.5832 -0.3441
  241TF     N9822478   0.734   1.523   5.641  0.2858  0.4557  0.0387
  241TF     S9922479   0.647   1.614   5.729  0.0003 -0.0362 -0.1747
  241TF    O91022480   0.524   1.544   5.770 -0.2167  0.1808  0.5936
  241TF    O91122481   0.635   1.751   5.680 -0.4866  0.0590  0.1476
  241TF     C9Z22482   0.756   1.634   5.884  0.0614 -0.1008  0.0917
  241TF    F91322483   0.873   1.683   5.864  0.0740  0.0551 -0.0690
  241TF    F91422484   0.700   1.711   5.979 -0.2247 -0.4671 -0.0432
  241TF    F91522485   0.776   1.520   5.933  0.7234  0.0849  0.0084
  242TF     S9122486   0.235   4.919   2.801  0.3019  0.2673 -0.0197
  242TF     O9222487   0.339   4.914   2.902  0.3932  0.7989  0.2755
  242TF     O9322488   0.099   4.885   2.845 -0.5115 -0.2022  0.5013
  242TF     C9Z22489   0.224   5.088   2.732  0.5172 -1.0907  0.3487
  242TF     F9522490   0.337   5.143   2.694  0.0497  0.1017  0.1464
  242TF     F9622491   0.165   5.162   2.825 -0.3234  0.0102  0.0684
  242TF     F9722492   0.140   5.092   2.630  0.4147  0.2088 -0.0483
  242TF     N9822493   0.279   4.843   2.674  0.6679  0.2084 -0.1978
  242TF     S9922494   0.227   4.711   2.610  0.0628 -0.0889 -0.1880
  242TF    O91022495   0.124   4.647   2.689 -0.5253  0.2078 -0.4992
  242TF    O91122496   0.330   4.619   2.564 -0.0532  0.0521 -0.2700
  242TF     C9Z22497   0.138   4.769   2.457  0.7543 -0.1177 -0.3380
  242TF    F91322498   0.011   4.815   2.482 -0.4976 -0.7902 -0.2178
  242TF    F91422499   0.206   4.865   2.390 -0.4829 -0.4406  0.2464
  242TF    F91522500   0.122   4.673   2.365  0.2463 -0.7723 -0.5491
  243TF     S9122501   1.107   0.108   6.274 -0.3203  0.1577  0.1895
  243TF     O9222502   1.240   0.081   6.213 -0.3293 -0.1414  0.5207
  243TF     O9322503   1.093   0.163   6.413  0.2133 -0.8552  0.2261
  243TF     C9Z22504   1.036   0.240   6.169  0.3896 -0.3851 -0.4863
  243TF     F9522505   0.933   0.297   6.229  0.0738  0.2123 -0.4763
  243TF     F9622506   0.997   0.217   6.047 -0.2284 -0.4766  0.2139
  243TF     F9722507   1.128   0.339   6.162 -0.4306  0.1015 -0.3916
  243TF     N9822508   1.008  -0.002   6.247 -0.1930  0.0081  1.0739
  243TF     S9922509   0.993  -0.136   6.329 -0.3307  0.7105 -0.3301
  243TF    O91022510   1.095  -0.160   6.432 -0.3524  0.4788  0.2980
  243TF    O91122511   0.960  -0.253   6.254  0.6349 -0.3159  0.2814
  243TF     C9Z22512   0.840  -0.103   6.416  0.0357  0.6668 -0.2082
  243TF    F91322513   0.857  -0.029   6.518 -0.1787  0.3201  0.2838
  243TF    F91422514   0.743  -0.053   6.341  0.2255 -0.0410  0.1193
  243TF    F91522515   0.801  -0.220   6.463  0.2656 -0.0204 -0.2685
  244TF     S9122516   2.977   1.736   4.111 -0.1522 -0.2511 -0.1030
  244TF     O9222517   3.069   1.683   4.012  0.6195 -0.7848 -0.1475
  244TF     O9322518   3.009   1.867   4.149  0.5269 -0.5868  0.5698
  244TF     C9Z22519   2.821   1.763   4.012  0.6515 -0.5166 -0.1438
  244TF     F9522520   2.722   1.826   4.079  0.4151 -0.0179 -0.5671
  244TF     F9622521   2.769   1.648   3.973  0.2058 -0.4488  0.0864
  244TF     F9722522   2.843   1.827   3.900  0.6209 -0.3987  0.4235
  244TF     N9822523   2.934   1.635   4.221  0.2546  0.4402 -0.4621
  244TF     S9922524   2.910   1.689   4.367  0.0119  0.3309 -0.4110
  244TF    O91022525   2.871   1.583   4.456  0.3035  0.0767 -0.4865
  244TF    O91122526   2.832   1.812   4.374 -0.3921 -0.3060 -0.4940
  244TF     C9Z22527   3.086   1.730   4.425  0.5392  0.8871  0.0370
  244TF    F91322528   3.075   1.772   4.556 -0.1622 -0.4144 -0.3563
  244TF    F91422529   3.164   1.623   4.437 -0.1666 -0.0168  0.0308
  244TF    F91522530   3.157   1.819   4.352 -0.4465 -0.3492 -0.6796
  245TF     S9122531   6.758   1.842   4.412 -0.3383  0.2634  0.3520
  245TF     O9222532   6.732   1.966   4.485  0.3210  0.3314  0.0239
  245TF     O9322533   6.789   1.853   4.266 -0.2763 -0.0756 -0.1671
  245TF     C9Z22534   6.915   1.782   4.478 -0.1080 -0.3199  0.7855
  245TF     F9522535   6.898   1.729   4.598 -0.0888  0.0551  0.0284
  245TF     F9622536   6.995   1.886   4.494  0.0433 -0.2344  0.7050
  245TF     F9722537   6.980   1.694   4.398  0.3828 -0.1465  0.2151
  245TF     N9822538   6.654   1.731   4.452 -0.3231 -0.5052 -0.1814
  245TF     S9922539   6.511   1.768   4.504  0.0953  0.1366 -0.2579
  245TF    O91022540   6.452   1.886   4.447 -0.2965  0.3504 -0.9105
  245TF    O91122541   6.498   1.753   4.647 -0.2187  0.2249  0.7695
  245TF     C9Z22542   6.406   1.635   4.439  0.6692 -0.0676  0.6812
  245TF    F91322543   6.415   1.620   4.311 -0.1318  0.1842 -0.3119
  245TF    F91422544   6.428   1.515   4.491  0.2527  0.3541  0.1399
  245TF    F91522545   6.279   1.661   4.467  0.2536  0.5677  0.4889
  246TF     S9122546   2.719   3.707   2.086  0.1928  0.8491 -0.5231
  246TF     O9222547   2.590   3.643   2.067  0.0660  0.7231 -0.7090
  246TF     O9322548   2.807   3.637   2.176  0.4683 -0.1097 -0.8017
  246TF     C9Z22549   2.802   3.681   1.926  0.0237 -0.8187  0.9918
  246TF     F9522550   2.818   3.555   1.900  0.5083  0.0854  0.1789
  246TF     F9622551   2.930   3.731   1.929 -0.4879  0.3126 -0.3170
  246TF     F9722552   2.734   3.740   1.822 -0.5067 -0.0324 -0.1824
  246TF     N9822553   2.704   3.855   2.099 -0.1649 -0.4177  0.0289
  246TF     S9922554   2.733   3.915   2.238  1.1922 -0.3178 -0.1962
  246TF    O91022555   2.873   3.957   2.248  0.3876 -0.3352 -0.3042
  246TF    O91122556   2.679   3.831   2.341 -0.2830 -0.4461 -0.1508
  246TF     C9Z22557   2.625   4.068   2.241  0.0962 -0.2088  0.0642
  246TF    F91322558   2.641   4.157   2.142  0.1547  0.0516  0.0783
  246TF    F91422559   2.498   4.035   2.235  0.8655  0.0409  0.4335
  246TF    F91522560   2.646   4.137   2.350 -0.4528 -0.4263 -0.1411
  247TF     S9122561   2.181   0.229   6.558 -0.2667 -0.0985  0.5928
  247TF     O9222562   2.230   0.345   6.631  0.4795  0.5038 -0.2534
  247TF     O9322563   2.263   0.115   6.535 -0.5964  1.1760 -0.1750
  247TF     C9Z22564   2.057   0.162   6.671  0.1155 -0.0950 -0.1474
  247TF     F9522565   1.974   0.252   6.718 -0.0312 -0.2401 -0.6373
  247TF     F9622566   2.116   0.106   6.777  0.3168  0.4994 -0.0101
  247TF     F9722567   1.975   0.073   6.614 -0.2910 -0.3024  0.2070
  247TF     N9822568   2.103   0.268   6.426 -0.2521  0.4833  0.0820
  247TF     S9922569   2.180   0.346   6.313  0.1943 -0.2953  0.1979
  247TF    O91022570   2.312   0.392   6.348 -0.0340 -0.0232  0.6852
  247TF    O91122571   2.096   0.449   6.250 -0.2533  0.2829  0.6267
  247TF     C9Z22572   2.210   0.208   6.195 -0.1854  0.1375 -0.3112
  247TF    F91322573   2.310   0.129   6.228  0.4664  0.0585  0.2058
  247TF    F91422574   2.109   0.128   6.184  0.2434  0.2058  0.4021
  247TF    F91522575   2.240   0.255   6.074  0.1811  0.2936  0.6229
  248TF     S9122576   0.552   0.558   6.311 -0.0663  0.3714  0.0770
  248TF     O9222577   0.439   0.611   6.384 -0.1355 -0.6789 -0.0343
  248TF     O9322578   0.672   0.510   6.377  0.0235  0.2609  0.1463
  248TF     C9Z22579   0.490   0.393   6.248  0.3859 -0.5868  0.0730
  248TF     F9522580   0.398   0.427   6.157 -0.3149 -0.1373 -0.1977
  248TF     F9622581   0.429   0.317   6.333  0.2869  0.1704 -0.9708
  248TF     F9722582   0.583   0.318   6.191  0.0630  0.3017 -0.1650
  248TF     N9822583   0.583   0.636   6.182 -0.2609  0.2268  0.3278
  248TF     S9922584   0.623   0.778   6.192  0.0932 -0.4071  0.0453
  248TF    O91022585   0.672   0.810   6.324  0.0988  0.0820 -0.1935
  248TF    O91122586   0.516   0.861   6.139 -0.1781  0.1908  0.2232
  248TF     C9Z22587   0.775   0.795   6.096 -0.4798 -0.2260  0.3114
  248TF    F91322588   0.836   0.911   6.121 -0.3471 -0.4407  0.4268
  248TF    F91422589   0.861   0.705   6.136 -0.4861 -0.2364  0.1422
  248TF    F91522590   0.770   0.793   5.964  0.3606 -0.5239  0.2590
  249TF     S9122591   4.457   5.071   6.680  0.0813 -0.0489  0.3416
  249TF     O9222592   4.545   5.118   6.783  0.6295  0.0195 -0.6056
  249TF     O9322593   4.439   4.925   6.669  0.4003 -0.6714  0.2928
  249TF     C9Z22594   4.293   5.118   6.746  0.4915  0.6631  0.5430
  249TF     F9522595   4.245   5.036   6.836 -0.0963  0.2274  0.2886
  249TF     F9622596   4.201   5.125   6.645  0.1081 -0.7899  0.2047
  249TF     F9722597   4.298   5.235   6.805  0.3185 -0.0357  0.3780
  249TF     N9822598   4.467   5.149   6.545 -0.2635 -0.6752  0.4286
  249TF     S9922599   4.558   5.102   6.426 -0.0044 -0.5354  0.4227
  249TF    O91022600   4.549   4.966   6.380 -0.3057  0.0712 -0.3217
  249TF    O91122601   4.694   5.149   6.449 -0.3499  0.1458 -0.4198
  249TF     C9Z22602   4.491   5.187   6.283  0.0570  0.4099  0.5364
  249TF    F91322603   4.572   5.172   6.179 -0.2385 -0.4729  0.1260
  249TF    F91422604   4.382   5.129   6.242  0.2896 -0.3135  0.1220
  249TF    F91522605   4.457   5.316   6.291  0.4361 -0.0930  0.6781
  250TF     S9122606   2.290   3.764   1.622 -0.2350  0.2253 -0.0188
  250TF     O9222607   2.291   3.773   1.478 -0.1806 -0.3255  0.3701
  250TF     O9322608   2.271   3.634   1.679 -0.3845  0.0677  0.4635
  250TF     C9Z22609   2.453   3.822   1.674  0.9293 -0.0116  0.3594
  250TF     F9522610   2.471   3.800   1.801 -0.4680 -1.0039 -0.4732
  250TF     F9622611   2.472   3.959   1.668 -0.1148  0.3416 -0.1908
  250TF     F9722612   2.551   3.767   1.604  0.6561  0.0679  0.1074
  250TF     N9822613   2.189   3.870   1.682  0.3863  0.8296 -0.2620
  250TF     S9922614   2.058   3.900   1.606  0.1901 -0.2421 -0.2803
  250TF    O91022615   1.990   3.776   1.585 -0.2910  0.8993 -0.3249
  250TF    O91122616   2.069   3.990   1.495  0.6836 -0.1297 -0.1451
  250TF     C9Z22617   1.956   3.997   1.727 -0.4633  0.6417 -0.0506
  250TF    F91322618   1.833   3.996   1.695  0.3877 -0.1656 -0.0677
  250TF    F91422619   1.965   3.948   1.850 -0.1291 -0.1549  0.1221
  250TF    F91522620   1.994   4.123   1.718  0.3195  0.4831 -0.7052
  251TF     S9122621   4.251   3.341   5.080  0.1824 -0.0753 -0.0498
  251TF     O9222622   4.179   3.394   5.192  0.3431 -0.2067  0.1863
  251TF     O9322623   4.373   3.408   5.041  0.0162 -0.1276 -0.0420
  251TF     C9Z22624   4.313   3.176   5.147  0.2236 -0.3813 -0.1444
  251TF     F9522625   4.228   3.120   5.220  0.2458  0.4431  0.2088
  251TF     F9622626   4.419   3.198   5.224 -0.0097  0.5387  0.0140
  251TF     F9722627   4.351   3.085   5.058 -0.1363 -0.7357  0.8622
  251TF     N9822628   4.161   3.293   4.959 -0.3784 -0.4295 -0.3148
  251TF     S9922629   4.177   3.358   4.818  0.3973  0.3956  0.4526
  251TF    O91022630   4.281   3.299   4.743 -0.1883 -0.3130 -0.4275
  251TF    O91122631   4.181   3.502   4.827  0.3227 -0.1962  0.0146
  251TF     C9Z22632   4.025   3.308   4.723 -1.0538  0.2000 -0.4832
  251TF    F91322633   4.015   3.175   4.727 -0.0733 -0.3477  0.1822
  251TF    F91422634   3.917   3.351   4.786 -0.0707  0.0693  0.3911
  251TF    F91522635   4.009   3.343   4.594  0.1059  0.2668  0.1456
  252TF     S9122636   4.227   0.329   0.906 -0.2423  0.0175  0.0380
  252TF     O9222637   4.192   0.456   0.847 -0.1163 -0.0515 -0.4062
  252TF     O9322638   4.255   0.224   0.811 -0.5143  0.1207  0.0819
  252TF     C9Z22639   4.393   0.359   0.993  0.9324 -0.1787  1.0949
  252TF     F9522640   4.390   0.470   1.071 -0.6787 -0.3738 -1.0107
  252TF     F9622641   4.499   0.373   0.911  0.5463  0.2153 -0.1866
  252TF     F9722642   4.424   0.260   1.070  0.5825  0.1631  0.0510
  252TF     N9822643   4.130   0.299   1.024 -0.5753  0.2484  0.5773
  252TF     S9922644   4.079   0.153   1.040  0.0150 -0.2267 -0.0024
  252TF    O91022645   4.187   0.074   1.094  0.3570 -0.5276  0.2381
  252TF    O91122646   4.009   0.099   0.928 -0.4669 -0.2108  0.2482
  252TF     C9Z22647   3.954   0.164   1.174 -0.2972  0.1098  0.6945
  252TF    F91322648   4.008   0.197   1.294 -0.6186 -0.2424  0.6554
  252TF    F91422649   3.861   0.250   1.143 -0.7717 -0.3311  0.2458
  252TF    F91522650   3.886   0.059   1.192  1.0570  0.1280  0.0404
  253TF     S9122651   6.578   0.822   2.777  0.1599 -0.0847  0.3288
  253TF     O9222652   6.600   0.730   2.883 -0.6316 -0.1076 -0.5234
  253TF     O9322653   6.538   0.957   2.810  0.1034 -0.4936  0.4537
  253TF     C9Z22654   6.745   0.841   2.696 -0.1845 -0.5110  0.2306
  253TF     F9522655   6.840   0.874   2.784 -0.1912  0.1456 -0.0860
  253TF     F9622656   6.745   0.938   2.600 -0.3302  0.6369 -0.2956
  253TF     F9722657   6.789   0.731   2.639  0.1926 -0.2566 -0.2506
  253TF     N9822658   6.496   0.754   2.671 -0.3500 -0.2623  0.6156
  253TF     S9922659   6.355   0.694   2.705 -0.4645  0.2012  0.4774
  253TF    O91022660   6.292   0.752   2.824  0.1729  0.6045  0.2012
  253TF    O91122661   6.352   0.548   2.703  0.2678  0.6568 -0.6894
  253TF     C9Z22662   6.251   0.742   2.562 -0.3060  0.0617 -0.5568
  253TF    F91322663   6.140   0.670   2.549  0.0966  0.2770  0.0186
  253TF    F91422664   6.210   0.871   2.567 -0.0057  0.1724 -0.0496
  253TF    F91522665   6.315   0.738   2.436  0.3950 -0.1315  0.6395
  254TF     S9122666   4.542   5.932   2.866 -0.0360  0.2351 -0.3139
  254TF     O9222667   4.500   5.827   2.955  0.5595  0.5990 -0.0465
  254TF     O9322668   4.481   5.949   2.738 -0.1571  0.2662 -0.1230
  254TF     C9Z22669   4.501   6.094   2.960  0.8369 -0.2557 -0.0431
  254TF     F9522670   4.580   6.113   3.065 -0.1963 -0.0154  0.1232
  254TF     F9622671   4.372   6.103   3.000  0.3781 -0.4859 -0.2928
  254TF     F9722672   4.516   6.210   2.888 -0.0177 -0.2028  0.1067
  254TF     N9822673   4.697   5.934   2.853  0.2294 -0.0830 -0.6629
  254TF     S9922674   4.783   6.017   2.753 -0.0539 -0.3288  0.0393
  254TF    O91022675   4.721   6.136   2.694  0.0925  0.2561  0.0908
  254TF    O91122676   4.853   5.933   2.661  0.1055 -0.4674 -0.6546
  254TF     C9Z22677   4.915   6.085   2.871 -0.3498  0.1447  0.4504
  254TF    F91322678   4.879   6.125   2.989  0.3296 -0.1830 -0.5146
  254TF    F91422679   5.004   5.985   2.891  0.2408 -0.6960  0.2641
  254TF    F91522680   4.988   6.181   2.823 -0.0745 -0.2416 -0.1530
  255TF     S9122681   0.430   2.822   2.079  0.4210 -0.1843  0.5982
  255TF     O9222682   0.400   2.770   1.946 -0.0487  0.1943  0.1863
  255TF     O9322683   0.526   2.743   2.145 -0.0915  0.0726  0.1076
  255TF     C9Z22684   0.528   2.979   2.045  0.6332  0.6329 -0.4866
  255TF     F9522685   0.604   3.018   2.146 -0.0848 -0.4424  0.0622
  255TF     F9622686   0.446   3.084   2.011  0.1833  0.5120 -0.8090
  255TF     F9722687   0.617   2.965   1.949 -0.3217  0.0404 -0.3843
  255TF     N9822688   0.308   2.879   2.161 -0.1774 -0.1676  0.1986
  255TF     S9922689   0.224   2.783   2.243  0.1653  0.2155 -0.0062
  255TF    O91022690   0.288   2.749   2.366  0.1684  0.2019  0.1364
  255TF    O91122691   0.189   2.668   2.157 -0.5930 -0.1795 -0.4727
  255TF     C9Z22692   0.066   2.875   2.275 -0.1690 -0.5126  0.6545
  255TF    F91322693  -0.005   2.820   2.376 -0.4630 -0.2066  0.3517
  255TF    F91422694   0.077   3.004   2.313  0.3841  0.0423  0.0384
  255TF    F91522695  -0.018   2.867   2.173  0.1288 -0.1558  0.3343
  256TF     S9122696   0.343   5.805   5.287 -0.0359 -0.4121 -0.0112
  256TF     O9222697   0.467   5.782   5.354  0.1464 -0.2581  0.1046
  256TF     O9322698   0.324   5.924   5.205 -0.8089  0.2388  0.0712
  256TF     C9Z22699   0.351   5.673   5.154 -0.1508 -0.7501 -0.0230
  256TF     F9522700   0.236   5.654   5.092  0.6782 -0.0366 -0.0372
  256TF     F9622701   0.396   5.556   5.207  0.4108 -0.0760 -0.1463
  256TF     F9722702   0.427   5.706   5.047 -0.1585 -0.0943 -0.1523
  256TF     N9822703   0.220   5.772   5.369 -0.3648  0.0679 -0.3520
  256TF     S9922704   0.194   5.866   5.493  0.4462  0.0998 -0.0988
  256TF    O91022705   0.130   5.986   5.450 -0.2000 -0.7242 -0.0643
  256TF    O91122706   0.305   5.872   5.584  0.2894 -0.2616 -0.0395
  256TF     C9Z22707   0.065   5.775   5.598 -0.1015  0.3094 -0.8964
  256TF    F91322708   0.007   5.854   5.684  0.1654  0.0623  0.0549
  256TF    F91422709  -0.035   5.722   5.528  0.6000  0.2634 -0.3324
  256TF    F91522710   0.121   5.683   5.677  0.3069 -0.2205 -0.0677
  257TF     S9122711   0.058   6.832   0.697  0.0727 -0.3675 -0.4398
  257TF     O9222712   0.112   6.863   0.826 -0.2726  0.2256 -0.2697
  257TF     O9322713   0.143   6.777   0.595 -0.7815 -0.4058 -0.2907
  257TF     C9Z22714  -0.058   6.698   0.737  0.0006 -0.3804  0.0107
  257TF     F9522715  -0.102   6.650   0.620 -0.5517 -0.1945 -0.0358
  257TF     F9622716  -0.173   6.742   0.796  0.2743  0.5330  0.2299
  257TF     F9722717  -0.008   6.603   0.807 -0.0944 -0.5287 -0.3853
  257TF     N9822718  -0.036   6.938   0.639 -0.4693 -0.8636  0.1919
  257TF     S9922719   0.015   7.075   0.600 -0.0705 -0.2995 -0.1023
  257TF    O91022720   0.064   7.076   0.465 -0.8632 -0.4183 -0.5169
  257TF    O91122721   0.094   7.131   0.712  0.3045  0.0971 -0.3863
  257TF     C9Z22722  -0.141   7.167   0.597  0.2489  0.8757 -0.2236
  257TF    F91322723  -0.171   7.224   0.716  0.0775 -0.4039 -0.1081
  257TF    F91422724  -0.147   7.265   0.505 -0.0765  0.2459  0.2602
  257TF    F91522725  -0.244   7.083   0.578  0.3847 -0.0154  0.2728
  258TF     S9122726   0.201   2.644   1.380 -0.0172 -0.1260 -0.4499
  258TF     O9222727   0.079   2.569   1.392 -0.4472 -0.0928  0.3001
  258TF     O9322728   0.295   2.662   1.488  0.4918  0.0643 -0.2317
  258TF     C9Z22729   0.297   2.540   1.251  0.7633 -0.2712  0.0541
  258TF     F9522730   0.227   2.519   1.137 -0.8531  0.0014  0.5767
  258TF     F9622731   0.316   2.422   1.306 -0.3370  0.2880  0.0567
  258TF     F9722732   0.415   2.594   1.226 -0.1316 -0.3739  0.2829
  258TF     N9822733   0.170   2.781   1.313 -0.1644  0.1318 -0.1959
  258TF     S9922734   0.206   2.908   1.388  0.0542  0.1673 -0.5192
  258TF    O91022735   0.344   2.944   1.384 -0.6898 -0.3091 -0.7352
  258TF    O91122736   0.129   2.930   1.508  0.2157 -0.0085 -0.2948
  258TF     C9Z22737   0.128   3.023   1.261  0.7874 -0.1185 -0.3597
  258TF    F91322738   0.008   2.993   1.218  0.4427  0.2174 -0.0949
  258TF    F91422739   0.120   3.149   1.298  0.2259  0.6087 -0.1504
  258TF    F91522740   0.213   3.026   1.154  0.0186  0.6736 -0.2188
  259TF     S9122741   0.666   0.594   0.608  0.2416 -0.2919 -0.6138
  259TF     O9222742   0.693   0.679   0.724 -0.1315 -0.2043 -0.1905
  259TF     O9322743   0.526   0.577   0.573  0.1853 -0.4687  0.2322
  259TF     C9Z22744   0.745   0.677   0.457  0.4870 -0.0625 -0.3560
  259TF     F9522745   0.737   0.614   0.340  0.0317 -0.4242  0.0562
  259TF     F9622746   0.873   0.692   0.481 -0.2948  0.6673  0.2886
  259TF     F9722747   0.689   0.800   0.438 -0.3863  0.9279  0.0315
  259TF     N9822748   0.738   0.460   0.608  0.1134 -0.6866 -0.5505
  259TF     S9922749   0.723   0.356   0.724 -0.0637  0.2854  0.1995
  259TF    O91022750   0.586   0.345   0.765 -0.1763 -0.1067 -0.1844
  259TF    O91122751   0.829   0.375   0.821  0.8970 -0.1496  0.3183
  259TF     C9Z22752   0.765   0.196   0.633  0.3568  0.5740 -0.2944
  259TF    F91322753   0.686   0.179   0.527  0.4716  0.1066  0.5629
  259TF    F91422754   0.893   0.188   0.591 -0.3498 -0.7703  0.1305
  259TF    F91522755   0.749   0.091   0.716  0.3488  0.2769  0.5281
  260TF     S9122756   6.259   1.173   1.383 -0.1688  0.2308  0.1786
  260TF     O9222757   6.191   1.065   1.311 -0.4388 -0.2244  0.6842
  260TF     O9322758   6.190   1.295   1.412  0.1233  0.2207  0.1215
  260TF     C9Z22759   6.300   1.095   1.546  0.6285  0.1737 -0.4514
  260TF     F9522760   6.383   0.998   1.529  0.5085 -0.0582 -0.3366
  260TF     F9622761   6.197   1.043   1.616  0.0480  0.0710  0.0029
  260TF     F9722762   6.352   1.182   1.623 -0.3090  0.3896  0.2406
  260TF     N9822763   6.396   1.204   1.324 -0.1282  0.5273 -0.1430
  260TF     S9922764   6.436   1.137   1.182  0.1617  0.1989 -0.3302
  260TF    O91022765   6.333   1.163   1.083 -0.5944 -0.1730  0.0658
  260TF    O91122766   6.485   1.006   1.190  0.4608  0.8152  0.0745
  260TF     C9Z22767   6.589   1.234   1.139 -0.5166  0.6027  0.3374
  260TF    F91322768   6.670   1.235   1.250 -0.0445  0.5013 -0.3198
  260TF    F91422769   6.660   1.176   1.045  0.2232  0.8628 -0.2484
  260TF    F91522770   6.568   1.356   1.086 -0.0221 -0.6252  0.1856
  261TF     S9122771   0.303   1.638   0.273 -0.0418 -0.0147  0.1214
  261TF     O9222772   0.398   1.662   0.168 -0.3593 -0.6923  0.0494
  261TF     O9322773   0.355   1.570   0.390 -0.8531  0.2020  0.2599
  261TF     C9Z22774   0.271   1.810   0.334 -0.6414 -0.2735  0.6773
  261TF     F9522775   0.196   1.870   0.243  0.4408 -0.3485 -0.5807
  261TF     F9622776   0.375   1.888   0.346 -0.3242 -0.2247  0.2169
  261TF     F9722777   0.204   1.806   0.446  0.9347 -0.0820 -0.2635
  261TF     N9822778   0.165   1.593   0.222 -0.7884 -0.4849  0.1070
  261TF     S9922779   0.072   1.516   0.319  0.3063  0.1503  0.5585
  261TF    O91022780   0.054   1.580   0.444 -0.1659  0.3390  0.0287
  261TF    O91122781   0.093   1.375   0.318 -0.3243  0.4433  0.4673
  261TF     C9Z22782  -0.091   1.541   0.238  0.4069 -0.1696  1.0901
  261TF    F91322783  -0.112   1.485   0.116 -0.7320  0.2108 -0.2080
  261TF    F91422784  -0.193   1.505   0.309  0.2244 -0.2809 -0.0244
  261TF    F91522785  -0.093   1.665   0.213  0.0601 -0.4331  0.0184
  262TF     S9122786   0.708   6.724   5.421 -0.9712 -0.6494 -0.1552
  262TF     O9222787   0.652   6.664   5.298 -0.3000  0.0215  0.1539
  262TF     O9322788   0.761   6.858   5.401  0.0140 -0.1837  0.1938
  262TF     C9Z22789   0.568   6.734   5.552 -0.3762  0.6813  0.6834
  262TF     F9522790   0.609   6.782   5.671  0.4733  0.3513 -0.1197
  262TF     F9622791   0.507   6.620   5.578  0.5074 -0.5366 -0.7659
  262TF     F9722792   0.465   6.807   5.508  0.0881  0.0405 -0.6026
  262TF     N9822793   0.808   6.638   5.489 -0.3731  0.7205  0.1519
  262TF     S9922794   0.958   6.649   5.467 -0.0755  0.5208 -0.4195
  262TF    O91022795   1.017   6.754   5.544 -0.0732  0.2653 -0.2396
  262TF    O91122796   0.992   6.625   5.329  0.0320 -0.6119  0.3117
  262TF     C9Z22797   1.001   6.488   5.540 -0.9722  0.1793  0.2348
  262TF    F91322798   1.122   6.488   5.597  0.1021  0.2672 -0.0430
  262TF    F91422799   0.923   6.453   5.641  0.3549  0.2590  0.9018
  262TF    F91522800   1.000   6.393   5.446  0.3947 -0.3995  0.0922
  263TF     S9122801   5.469   0.655   0.635 -0.3783 -0.1922 -0.0754
  263TF     O9222802   5.412   0.743   0.538 -0.5363 -0.1504 -0.0369
  263TF     O9322803   5.447   0.516   0.619 -1.0509 -0.2693  0.3162
  263TF     C9Z22804   5.653   0.689   0.625  0.2602  0.1816 -0.3579
  263TF     F9522805   5.715   0.600   0.693 -0.6021  0.2513 -0.4695
  263TF     F9622806   5.685   0.806   0.668 -0.4184 -0.2889 -0.2320
  263TF     F9722807   5.699   0.677   0.502 -0.2642 -0.1229  0.0032
  263TF     N9822808   5.426   0.701   0.777 -0.7244  0.5016  1.4027
  263TF     S9922809   5.286   0.663   0.823  0.0238 -0.0582  0.2504
  263TF    O91022810   5.283   0.527   0.867  0.5403  0.3345 -0.3365
  263TF    O91122811   5.182   0.701   0.727 -0.2120  0.2723  0.2649
  263TF     C9Z22812   5.271   0.769   0.976  0.0743 -0.0746  0.1491
  263TF    F91322813   5.146   0.769   1.023  0.1875  0.1042  0.1122
  263TF    F91422814   5.351   0.726   1.071  0.0133  0.1050 -0.0150
  263TF    F91522815   5.303   0.891   0.942  0.0127 -0.1578  0.6269
  264TF     S9122816   4.201   0.336   2.656  0.1898 -0.0692  0.3130
  264TF     O9222817   4.325   0.362   2.726 -0.2488  0.5519 -0.3700
  264TF     O9322818   4.209   0.272   2.528  0.0864  0.2494 -0.0611
  264TF     C9Z22819   4.123   0.204   2.763  0.0938 -0.5130 -0.3449
  264TF     F9522820   4.019   0.141   2.707 -0.3641 -0.1799 -0.6310
  264TF     F9622821   4.085   0.243   2.884 -0.3291  0.1947  0.0401
  264TF     F9722822   4.216   0.112   2.786  0.0539 -0.3414 -0.3099
  264TF     N9822823   4.103   0.460   2.665 -0.0391  0.6589  0.1064
  264TF     S9922824   4.145   0.609   2.654 -0.0027  0.5095  0.1163
  264TF    O91022825   4.276   0.625   2.594 -0.5271  0.0143  0.6012
  264TF    O91122826   4.099   0.691   2.764  0.4441  0.3385 -0.1627
  264TF     C9Z22827   4.032   0.657   2.513 -0.8906 -0.0827 -0.4828
  264TF    F91322828   4.025   0.788   2.502 -0.2481 -0.1894 -0.0457
  264TF    F91422829   4.072   0.610   2.397 -0.0471 -0.1924  0.7314
  264TF    F91522830   3.907   0.622   2.515 -0.1967  0.1041  0.1790
  265TF     S9122831   2.338   0.121   5.336 -0.3527  0.2315  0.0327
  265TF     O9222832   2.468   0.072   5.373 -0.1890 -0.5972 -0.1342
  265TF     O9322833   2.222   0.033   5.351 -0.1618 -0.4040  0.5443
  265TF     C9Z22834   2.306   0.252   5.467  0.3503  0.6375  1.3933
  265TF     F9522835   2.213   0.343   5.437 -0.8445 -0.4976  0.1616
  265TF     F9622836   2.413   0.326   5.484 -0.7202 -0.6134 -0.7705
  265TF     F9722837   2.266   0.204   5.586 -0.6959 -0.2512 -0.3531
  265TF     N9822838   2.322   0.194   5.207 -0.0859  0.0252  0.0791
  265TF     S9922839   2.419   0.181   5.094  0.0860  0.4363 -0.1214
  265TF    O91022840   2.418   0.035   5.058 -0.3878 -0.3436  0.0740
  265TF    O91122841   2.543   0.258   5.112  0.6681  0.0378  0.4031
  265TF     C9Z22842   2.328   0.272   4.958 -0.3578 -0.0532 -0.0029
  265TF    F91322843   2.366   0.239   4.832 -0.0533 -0.0766  0.4377
  265TF    F91422844   2.199   0.244   4.955 -0.2556  0.0333 -0.2076
  265TF    F91522845   2.344   0.401   4.977  0.0340  0.4181 -0.2741
  266TF     S9122846   0.801   0.338   3.136  0.1343  0.2989 -0.6841
  266TF     O9222847   0.744   0.407   3.252 -0.1688 -0.1850 -0.0299
  266TF     O9322848   0.896   0.413   3.059  0.4444  0.3142 -0.5722
  266TF     C9Z22849   0.871   0.183   3.200  0.1154  0.3117 -0.4433
  266TF     F9522850   0.800   0.117   3.290 -0.1793 -0.7314 -0.0343
  266TF     F9622851   0.991   0.203   3.256 -0.3757 -0.2621 -0.4051
  266TF     F9722852   0.900   0.106   3.097  0.3655  0.8898 -0.0286
  266TF     N9822853   0.677   0.300   3.053 -0.0666 -0.0397  0.0819
  266TF     S9922854   0.644   0.361   2.919 -0.0328  0.0587  0.4592
  266TF    O91022855   0.637   0.263   2.809 -0.0686 -0.4684 -0.1883
  266TF    O91122856   0.705   0.488   2.892 -0.2860 -0.5919  0.1111
  266TF     C9Z22857   0.465   0.398   2.957  0.2856  0.5102  0.4259
  266TF    F91322858   0.401   0.292   3.001 -0.0980  0.0421  0.4385
  266TF    F91422859   0.464   0.484   3.055 -0.5418 -0.2871  0.1030
  266TF    F91522860   0.396   0.453   2.859 -0.2120 -0.1162 -0.4817
  267TF     S9122861   4.866   5.217   4.010  0.1843  0.0908 -0.0610
  267TF     O9222862   4.958   5.310   4.076 -0.2641  0.2343 -0.5342
  267TF     O9322863   4.751   5.280   3.950 -0.2509  0.0209  0.3432
  267TF     C9Z22864   4.948   5.149   3.861 -0.0258  0.1857  0.5462
  267TF     F9522865   4.875   5.067   3.787  0.4482  0.0729  1.0346
  267TF     F9622866   5.063   5.082   3.889 -0.0154  0.2353  0.0417
  267TF     F9722867   4.982   5.246   3.782 -0.3296  0.0068 -0.3375
  267TF     N9822868   4.832   5.097   4.102  0.2587 -0.0157  0.3417
  267TF     S9922869   4.701   5.110   4.186  0.2096  0.2321  0.3749
  267TF    O91022870   4.586   5.064   4.111 -0.6955 -0.1228 -0.7264
  267TF    O91122871   4.686   5.237   4.249 -0.2882 -0.4152 -0.1647
  267TF     C9Z22872   4.727   4.980   4.322  0.3721 -0.0939 -1.4501
  267TF    F91322873   4.703   4.861   4.283  0.3583  0.5639 -0.5066
  267TF    F91422874   4.851   4.981   4.376 -0.4600  0.1156 -0.0422
  267TF    F91522875   4.649   5.000   4.426  0.0936  0.4656  0.1443
  268TF     S9122876   3.666   1.024   6.546  0.1006  0.0706  0.1993
  268TF     O9222877   3.793   1.017   6.482 -0.1783 -0.0018 -0.5947
  268TF     O9322878   3.667   1.059   6.687  0.5109 -0.0897 -0.0137
  268TF     C9Z22879   3.571   1.167   6.475 -0.5137 -0.5526  0.1472
  268TF     F9522880   3.449   1.184   6.531  0.2467 -0.1015  0.0060
  268TF     F9622881   3.548   1.145   6.347  0.0241 -0.3603 -0.0445
  268TF     F9722882   3.634   1.284   6.485 -0.0547 -0.5844  0.0916
  268TF     N9822883   3.573   0.898   6.504 -0.3281 -0.7734  0.0743
  268TF     S9922884   3.504   0.795   6.588  0.0184 -0.0381 -0.4136
  268TF    O91022885   3.507   0.831   6.728 -0.3673  0.5542  0.8382
  268TF    O91122886   3.544   0.658   6.558  0.0902  0.0052  0.4235
  268TF     C9Z22887   3.325   0.813   6.543 -0.2905 -0.4470 -0.2992
  268TF    F91322888   3.290   0.754   6.432 -0.0588  0.3882 -0.6179
  268TF    F91422889   3.252   0.767   6.646 -0.2008 -0.7087  0.3406
  268TF    F91522890   3.298   0.944   6.524 -0.0997  0.1956  0.2105
  269TF     S9122891   6.486   5.116   3.906 -0.8459 -0.2510  0.1135
  269TF     O9222892   6.570   5.048   3.814  0.2303 -0.1886  0.1926
  269TF     O9322893   6.496   5.079   4.043 -0.0596 -0.1028 -0.0606
  269TF     C9Z22894   6.525   5.297   3.896 -0.4097  0.5863  0.5324
  269TF     F9522895   6.448   5.370   3.967  0.2873 -0.4914 -0.2696
  269TF     F9622896   6.510   5.343   3.768 -0.2828  0.2089 -0.2110
  269TF     F9722897   6.646   5.330   3.927 -0.1176  0.3110  0.2445
  269TF     N9822898   6.341   5.126   3.862  0.7085 -0.0338  0.0796
  269TF     S9922899   6.260   5.005   3.814 -0.1718  0.1433  0.1754
  269TF    O91022900   6.128   5.011   3.866 -0.1563  0.3352 -0.0777
  269TF    O91122901   6.332   4.881   3.814  0.2545 -0.1289 -0.0970
  269TF     C9Z22902   6.249   5.048   3.630  0.1763 -0.1840  0.4962
  269TF    F91322903   6.198   4.946   3.560 -0.0699  0.2813  0.2601
  269TF    F91422904   6.163   5.147   3.604 -0.1391 -0.0249 -0.5333
  269TF    F91522905   6.365   5.073   3.572  0.5673 -0.3360 -0.1810
  270TF     S9122906   5.227   5.204   6.059  0.3609  0.1558  0.5013
  270TF     O9222907   5.119   5.297   6.067 -0.0746 -0.2131 -0.1625
  270TF     O9322908   5.216   5.095   6.150 -0.0946 -0.7609  0.2216
  270TF     C9Z22909   5.212   5.121   5.891 -0.3724  0.3291 -0.6913
  270TF     F9522910   5.217   5.208   5.792  0.1623  0.3850 -0.2207
  270TF     F9622911   5.097   5.065   5.881  0.3167  0.2092 -0.0931
  270TF     F9722912   5.306   5.031   5.872  0.0254  0.4199 -0.4217
  270TF     N9822913   5.373   5.265   6.057  0.0960  0.0456  0.3670
  270TF     S9922914   5.431   5.313   6.188 -0.1021  0.4560  0.0529
  270TF    O91022915   5.465   5.202   6.273  0.3534  0.0180 -0.1260
  270TF    O91122916   5.356   5.418   6.245 -0.1166 -0.3848 -0.2850
  270TF     C9Z22917   5.592   5.387   6.134  0.2385  0.5628  0.0181
  270TF    F91322918   5.568   5.483   6.037  0.4362  0.0343  0.3955
  270TF    F91422919   5.649   5.466   6.228 -0.1578 -0.1319 -0.6211
  270TF    F91522920   5.695   5.315   6.095  0.1265 -0.0357  0.1602
  271TF     S9122921   1.987   4.495   1.373 -0.1916 -0.6504 -0.0542
  271TF     O9222922   2.123   4.443   1.378 -0.6086 -0.3157 -0.3716
  271TF     O9322923   1.905   4.469   1.258 -0.0672  0.0693  0.1585
  271TF     C9Z22924   1.917   4.379   1.509 -0.2772  0.4053  0.0284
  271TF     F9522925   1.786   4.376   1.517  0.2427 -0.0585 -0.1357
  271TF     F9622926   1.963   4.396   1.630 -0.3342 -0.0919  0.0777
  271TF     F9722927   1.946   4.258   1.482  0.1908  0.8685 -0.1507
  271TF     N9822928   1.978   4.635   1.429 -0.1061  1.0232  0.0180
  271TF     S9922929   1.938   4.752   1.327 -0.1236  0.1090 -0.4388
  271TF    O91022930   1.796   4.755   1.293  0.1144 -0.1800  0.1620
  271TF    O91122931   2.035   4.767   1.220  0.3168 -0.0484 -0.5468
  271TF     C9Z22932   1.957   4.895   1.437  0.5876  0.1405 -0.3614
  271TF    F91322933   1.900   4.864   1.555  0.1092  0.0998 -0.2314
  271TF    F91422934   2.083   4.930   1.466  0.6732  0.0469 -0.5789
  271TF    F91522935   1.894   5.006   1.404  0.2057 -0.1781  0.2621
  272TF     S9122936   6.694   2.357   6.775  0.6011 -0.1219 -0.2971
  272TF     O9222937   6.638   2.387   6.643 -0.3189  0.8162  0.2919
  272TF     O9322938   6.624   2.417   6.890  0.4096 -0.1915  0.2920
  272TF     C9Z22939   6.658   2.177   6.802  0.2812  0.4848 -0.5275
  272TF     F9522940   6.697   2.097   6.706  0.0800  0.2125 -0.7002
  272TF     F9622941   6.524   2.167   6.805 -0.1722 -0.2299  0.3120
  272TF     F9722942   6.708   2.133   6.911 -0.5304 -0.0917  0.0053
  272TF     N9822943   6.845   2.369   6.768 -0.0540  0.2097 -0.0637
  272TF     S9922944   6.907   2.505   6.774 -0.2926 -0.3108 -0.4057
  272TF    O91022945   7.000   2.505   6.884 -0.3161 -0.2349  0.2660
  272TF    O91122946   6.811   2.609   6.778  0.2017  0.1660  0.2426
  272TF     C9Z22947   6.997   2.542   6.616  0.9629 -0.3251 -0.1075
  272TF    F91322948   7.095   2.456   6.606  0.1016  0.5755 -0.3267
  272TF    F91422949   6.922   2.525   6.510  0.1815  0.2080  0.0518
  272TF    F91522950   7.061   2.661   6.613 -0.1222  0.5390 -0.5391
  273TF     S9122951   5.905   2.063   0.585  0.0196  0.1194 -0.0221
  273TF     O9222952   5.935   2.199   0.618 -0.8018 -0.1957 -0.3983
  273TF     O9322953   5.940   2.020   0.452  0.0276 -0.7935  0.5853
  273TF     C9Z22954   6.020   1.972   0.697  0.1477 -0.2953  0.2023
  273TF     F9522955   6.004   1.997   0.823  0.2790 -0.2727  0.0175
  273TF     F9622956   6.147   1.989   0.667 -0.1172  0.0262  0.3412
  273TF     F9722957   5.991   1.845   0.693 -0.4016  0.0922 -0.3387
  273TF     N9822958   5.767   2.017   0.627  0.3552  0.5544 -0.3239
  273TF     S9922959   5.649   2.092   0.560 -0.0494 -1.1113  0.3961
  273TF    O91022960   5.624   2.048   0.422  0.0421  0.2079  0.4752
  273TF    O91122961   5.651   2.234   0.576  0.1443  0.3107 -0.3756
  273TF     C9Z22962   5.500   2.038   0.660  0.8786  0.0359 -0.2119
  273TF    F91322963   5.487   2.109   0.768  0.3191  0.4733  0.1542
  273TF    F91422964   5.391   2.075   0.586 -0.0484 -0.0942  0.3676
  273TF    F91522965   5.468   1.915   0.700  0.5364  0.2615  0.4521
  274TF     S9122966   6.497   2.476   5.815  0.1181 -0.1818 -0.3591
  274TF     O9222967   6.538   2.358   5.889 -0.1770  0.1261 -0.4188
  274TF     O9322968   6.526   2.601   5.877  0.4540  0.2059 -0.2762
  274TF     C9Z22969   6.596   2.474   5.653 -0.2809  0.4311 -0.4009
  274TF     F9522970   6.546   2.562   5.570  0.4171 -0.5064 -0.3363
  274TF     F9622971   6.594   2.354   5.605  0.9893 -0.3065  0.4001
  274TF     F9722972   6.724   2.516   5.660  0.2879 -0.4789  0.2223
  274TF     N9822973   6.353   2.469   5.766  0.0983  0.2118  0.1174
  274TF     S9922974   6.244   2.381   5.838  0.8634 -0.0677 -0.1627
  274TF    O91022975   6.281   2.335   5.969  0.0623 -0.5271  0.1387
  274TF    O91122976   6.188   2.284   5.755 -0.0258  0.1608 -0.0368
  274TF     C9Z22977   6.100   2.495   5.873  0.1468 -0.1744 -0.5912
  274TF    F91322978   6.007   2.435   5.945  0.6566 -0.0075  0.0298
  274TF    F91422979   6.135   2.601   5.945 -0.2833 -0.1179 -0.0285
  274TF    F91522980   6.029   2.541   5.767  0.6545 -0.0280  0.4585
  275TF     S9122981   3.950   5.938   2.729 -0.1352 -0.0804  0.1413
  275TF     O9222982   3.873   6.053   2.691  0.8417  0.6672 -0.2921
  275TF     O9322983   4.012   5.855   2.630  0.0338 -0.0313  0.2257
  275TF     C9Z22984   4.093   6.022   2.809 -0.8109  0.2585  0.6200
  275TF     F9522985   4.053   6.095   2.917 -0.0291 -0.1060 -0.1549
  275TF     F9622986   4.147   6.109   2.724  0.2490 -0.5055 -0.2749
  275TF     F9722987   4.189   5.935   2.847 -0.3133 -0.1039  0.2339
  275TF     N9822988   3.889   5.853   2.843  0.3398  0.1663 -0.2376
  275TF     S9922989   3.731   5.839   2.858 -0.1651 -0.2586 -0.3289
  275TF    O91022990   3.658   5.781   2.748  0.0995 -0.6974  0.0870
  275TF    O91122991   3.676   5.958   2.924 -0.1744  0.2748 -0.1177
  275TF     C9Z22992   3.728   5.707   2.978  0.2699 -0.2056 -0.4347
  275TF    F91322993   3.610   5.655   2.988 -0.4077 -0.1690 -0.3937
  275TF    F91422994   3.814   5.614   2.939 -0.3484  0.4587  0.0035
  275TF    F91522995   3.771   5.745   3.101 -0.6638 -0.4719  0.1785
  276TF     S9122996   6.360   2.272   3.701 -0.0992 -0.2145 -0.1511
  276TF     O9222997   6.412   2.169   3.783 -0.6466  0.5096  0.0354
  276TF     O9322998   6.407   2.408   3.716  0.0952  0.5464 -0.5572
  276TF     C9Z22999   6.427   2.223   3.536 -0.1689 -0.3033  1.0311
  276TF     F9523000   6.557   2.246   3.529 -0.2714  0.0997 -0.1077
  276TF     F9623001   6.364   2.290   3.437  0.2484  0.0022  0.3035
  276TF     F9723002   6.404   2.090   3.509  0.3688  0.8291 -0.0782
  276TF     N9823003   6.207   2.254   3.684 -0.1321 -0.2969 -0.4120
  276TF     S9923004   6.110   2.367   3.668  0.3887  0.3440  0.1809
  276TF    O91023005   6.165   2.485   3.614  0.2638 -0.3593 -0.1895
  276TF    O91123006   6.001   2.381   3.764  0.2839 -0.2845  0.7573
  276TF     C9Z23007   6.023   2.298   3.516 -0.2183  0.0345  0.8314
  276TF    F91323008   5.961   2.182   3.542 -0.2097 -0.4451 -0.3650
  276TF    F91423009   5.933   2.379   3.463 -0.1802  0.2719 -0.4105
  276TF    F91523010   6.092   2.256   3.407  0.0441  0.5969 -0.9190
  277TF     S9123011   0.197   1.733   5.704  0.2739  0.0154  0.0141
  277TF     O9223012   0.304   1.688   5.624 -0.4523 -0.4949 -0.0724
  277TF     O9323013   0.098   1.634   5.739 -0.2067  0.5327  1.0306
  277TF     C9Z23014   0.284   1.776   5.858  0.6545 -0.2492  0.5742
  277TF     F9523015   0.218   1.856   5.937  0.1065  0.4508 -0.5351
  277TF     F9623016   0.401   1.835   5.840  0.5067  0.2500  0.2912
  277TF     F9723017   0.304   1.666   5.933 -0.0568 -0.2468 -0.6814
  277TF     N9823018   0.155   1.875   5.657  0.3799 -0.1708 -0.5913
  277TF     S9923019   0.018   1.897   5.584  0.1889 -0.0346 -0.2030
  277TF    O91023020  -0.097   1.849   5.658  0.0808 -0.4656 -0.9479
  277TF    O91123021   0.019   1.868   5.440  0.2072  0.4564  0.1867
  277TF     C9Z23022   0.008   2.083   5.603 -0.6644  0.1099  0.3081
  277TF    F91323023   0.002   2.121   5.731 -0.0937  0.2942 -0.0128
  277TF    F91423024   0.103   2.151   5.544  0.0836 -0.4907 -0.0590
  277TF    F91523025  -0.104   2.131   5.546  0.1149 -0.0188  0.0366
  278TF     S9123026   6.189   3.644   1.193  0.0498 -0.5044  0.0285
  278TF     O9223027   6.135   3.697   1.066 -0.5209  0.5440 -0.0926
  278TF     O9323028   6.167   3.721   1.313  0.3098  0.3487  0.3926
  278TF     C9Z23029   6.094   3.488   1.206 -0.0148 -0.5165  0.1318
  278TF     F9523030   6.133   3.416   1.302  0.2345  0.6724  0.6706
  278TF     F9623031   6.100   3.408   1.097  0.0901 -0.6687  0.5219
  278TF     F9723032   5.964   3.510   1.224 -0.0417  0.2809 -0.2887
  278TF     N9823033   6.335   3.582   1.180 -0.1115 -0.2768  0.1296
  278TF     S9923034   6.458   3.662   1.237  0.0166 -0.1588 -0.2679
  278TF    O91023035   6.438   3.801   1.274 -0.0236 -0.2783  0.0587
  278TF    O91123036   6.584   3.630   1.163  0.1652  0.7559  0.0817
  278TF     C9Z23037   6.487   3.575   1.396 -0.0568 -0.6221 -0.4522
  278TF    F91323038   6.503   3.444   1.383  0.2439  0.0332 -0.0826
  278TF    F91423039   6.582   3.629   1.465 -0.1298  0.1449  0.1794
  278TF    F91523040   6.374   3.589   1.462  0.2856 -0.0532 -0.1343
  279TF     S9123041   5.605   0.098   4.083 -0.1211  0.0863 -0.1574
  279TF     O9223042   5.645   0.047   4.211 -0.2756  0.5058 -0.3601
  279TF     O9323043   5.473   0.077   4.026 -0.0396 -0.0490 -0.4771
  279TF     C9Z23044   5.600   0.282   4.116 -0.7430 -0.3604  0.3714
  279TF     F9523045   5.573   0.351   4.010  0.0410 -0.2932  0.0265
  279TF     F9623046   5.703   0.333   4.174  0.2183  0.2543 -0.0506
  279TF     F9723047   5.503   0.301   4.196 -0.0375 -0.2256  0.2259
  279TF     N9823048   5.711   0.078   3.976 -0.6381 -0.1375  0.3683
  279TF     S9923049   5.751  -0.067   3.930  0.1614  0.3594  0.2915
  279TF    O91023050   5.741  -0.086   3.784  0.2180  0.2111  0.1775
  279TF    O91123051   5.704  -0.175   4.006 -0.0245  0.1072 -0.0170
  279TF     C9Z23052   5.932  -0.081   3.960 -0.1408 -0.1093 -0.0021
  279TF    F91323053   5.948  -0.035   4.080  0.1700 -0.2641  0.8152
  279TF    F91423054   5.970  -0.208   3.971  0.2580 -0.0095 -0.5927
  279TF    F91523055   6.014  -0.018   3.881  0.0427  0.4628  0.6742
  280TF     S9123056   5.017   2.016   5.202 -0.4445  0.1520 -0.0115
  280TF     O9223057   4.994   1.915   5.300 -0.0315 -0.2197  0.3167
  280TF     O9323058   4.909   2.044   5.116  0.3679 -0.3450  0.1169
  280TF     C9Z23059   5.042   2.171   5.305 -0.5633 -0.4773 -0.6645
  280TF     F9523060   5.069   2.278   5.227 -0.3310  0.9928  0.4773
  280TF     F9623061   5.133   2.171   5.402  0.0042 -0.2364  0.5972
  280TF     F9723062   4.926   2.200   5.366 -0.4336  0.0683  0.7156
  280TF     N9823063   5.152   2.009   5.125 -0.4527 -0.2684  0.0162
  280TF     S9923064   5.265   1.927   5.185  0.2247  0.0782  0.0092
  280TF    O91023065   5.240   1.786   5.198 -0.1997  0.3226 -0.0016
  280TF    O91123066   5.342   1.993   5.289  0.3083 -0.6465  0.4536
  280TF     C9Z23067   5.389   1.932   5.050  0.3307 -0.4251  0.3055
  280TF    F91323068   5.350   1.867   4.944  0.1005 -0.8969  0.0524
  280TF    F91423069   5.422   2.054   5.013  0.4544  0.0353  0.9002
  280TF    F91523070   5.497   1.866   5.092 -0.4630 -0.2998  0.0806
  281TF     S9123071   3.486   1.849   6.528  0.1453 -0.3639 -0.2250
  281TF     O9223072   3.380   1.747   6.540  0.2859 -0.2090 -1.0466
  281TF     O9323073   3.579   1.842   6.419 -0.1610 -0.0424 -0.3790
  281TF     C9Z23074   3.384   2.005   6.500 -0.3095 -0.6722  0.4462
  281TF     F9523075   3.439   2.116   6.540 -0.6951  0.0208 -0.2345
  281TF     F9623076   3.262   1.996   6.560 -0.1086 -0.4503  0.0584
  281TF     F9723077   3.362   2.023   6.371  0.3992 -0.1153 -0.2978
  281TF     N9823078   3.561   1.878   6.658 -0.5917 -0.1741 -0.3267
  281TF     S9923079   3.620   1.753   6.729  0.4273 -0.0602  0.3028
  281TF    O91023080   3.606   1.622   6.666 -0.4145  0.2745 -0.0258
  281TF    O91123081   3.603   1.763   6.868  0.6323  0.1635 -0.1851
  281TF     C9Z23082   3.799   1.788   6.704 -0.6014 -0.5119  0.1650
  281TF    F91323083   3.876   1.728   6.791  0.3016  0.5507 -0.4329
  281TF    F91423084   3.836   1.735   6.589 -0.2018 -0.2863  0.0015
  281TF    F91523085   3.831   1.918   6.696 -0.2027 -0.0084 -0.0347
  282TF     S9123086   5.545   0.688   0.132  0.2867 -0.3819  0.5325
  282TF     O9223087   5.636   0.595   0.192  0.0310  0.0523 -0.1163
  282TF     O9323088   5.532   0.813   0.198 -0.0371  0.0649  0.0861
  282TF     C9Z23089   5.620   0.724  -0.026  1.0573  0.4241  0.1640
  282TF     F9523090   5.556   0.807  -0.114 -0.2644 -0.1868 -0.1233
  282TF     F9623091   5.636   0.612  -0.091  0.1670  0.1756 -0.2739
  282TF     F9723092   5.745   0.770  -0.011 -0.0426 -0.0766  0.0263
  282TF     N9823093   5.405   0.625   0.096 -0.4438  0.0264  0.1391
  282TF     S9923094   5.343   0.516   0.189  0.3641 -0.2886 -0.0324
  282TF    O91023095   5.204   0.521   0.164  0.0062 -0.7743 -0.0701
  282TF    O91123096   5.382   0.517   0.326  0.0508 -0.1788  0.2298
  282TF     C9Z23097   5.387   0.356   0.120  0.0826  0.2078 -0.2170
  282TF    F91323098   5.286   0.277   0.141 -0.0808  0.4825 -0.4675
  282TF    F91423099   5.407   0.368  -0.011  0.1315  0.0892  0.2272
  282TF    F91523100   5.491   0.293   0.171  0.4915 -0.3618 -0.3334
  283TF     S9123101   1.505   3.155   1.525 -0.2842 -0.4305 -0.1109
  283TF     O9223102   1.619   3.080   1.577 -0.1075  0.7480  0.1148
  283TF     O9323103   1.391   3.160   1.610  0.0093  0.2121 -0.4119
  283TF     C9Z23104   1.555   3.342   1.507 -0.0514 -0.8405 -0.4059
  283TF     F9523105   1.475   3.409   1.424 -0.2870 -0.0052 -0.1423
  283TF     F9623106   1.675   3.359   1.444 -0.2435 -0.0215  0.0531
  283TF     F9723107   1.565   3.405   1.622  0.3285 -0.0088  0.4808
  283TF     N9823108   1.464   3.112   1.380  0.9133  0.1868  0.2537
  283TF     S9923109   1.359   3.000   1.353 -0.0382  0.0396  0.1696
  283TF    O91023110   1.239   3.045   1.279 -0.2155  0.1599 -0.2356
  283TF    O91123111   1.335   2.920   1.470  0.0437  0.7152 -0.7682
  283TF     C9Z23112   1.457   2.888   1.240 -0.9017 -0.4163 -0.4082
  283TF    F91323113   1.483   2.940   1.124  0.0607  0.3306  0.3596
  283TF    F91423114   1.573   2.845   1.287  0.3444 -0.1017 -0.4103
  283TF    F91523115   1.394   2.779   1.202  0.4490  0.6997 -0.6995
  284TF     S9123116   1.265   5.528   2.934  0.1068 -0.2698  0.0929
  284TF     O9223117   1.180   5.580   3.034  0.6387  0.7482 -0.5364
  284TF     O9323118   1.202   5.514   2.804 -0.0995 -0.5688  0.1570
  284TF     C9Z23119   1.396   5.660   2.920  0.0394 -0.9619 -0.3006
  284TF     F9523120   1.463   5.661   2.806 -0.2510 -0.0033  0.0981
  284TF     F9623121   1.477   5.660   3.026  0.1844 -0.3540 -0.6318
  284TF     F9723122   1.339   5.781   2.932 -0.2140  0.3089 -0.1236
  284TF     N9823123   1.335   5.403   2.987  0.4951 -0.4813 -0.3429
  284TF     S9923124   1.275   5.260   2.974  0.2248 -0.3451 -0.5224
  284TF    O91023125   1.138   5.264   2.926  0.4243  0.3253 -0.4057
  284TF    O91123126   1.317   5.171   3.083  0.0583 -0.1055  0.7457
  284TF     C9Z23127   1.374   5.185   2.827 -0.6278  0.0545 -0.1513
  284TF    F91323128   1.505   5.218   2.831  0.2406 -0.0620  0.0454
  284TF    F91423129   1.363   5.057   2.811 -0.0106  0.4381 -0.1988
  284TF    F91523130   1.328   5.237   2.713  0.4119 -0.0692  0.5262
  285TF     S9123131   5.321   1.309   4.240  0.4737 -0.1854  0.1236
  285TF     O9223132   5.224   1.396   4.179 -0.2921  0.2519  0.4736
  285TF     O9323133   5.437   1.368   4.302 -0.7670  0.3443  0.0557
  285TF     C9Z23134   5.229   1.255   4.386  0.0737  0.0807 -0.0010
  285TF     F9523135   5.287   1.155   4.451 -0.0648  0.1125  0.0226
  285TF     F9623136   5.115   1.205   4.353  0.0911  0.2636  0.3639
  285TF     F9723137   5.199   1.354   4.468 -0.1254  0.0524 -0.3671
  285TF     N9823138   5.356   1.180   4.162 -0.1077  0.1535  0.1468
  285TF     S9923139   5.315   1.157   4.012 -0.2205 -0.0844  0.1560
  285TF    O91023140   5.416   1.091   3.930 -0.2572  0.2863 -0.0334
  285TF    O91123141   5.239   1.264   3.959 -0.5192  0.1273  0.1952
  285TF     C9Z23142   5.187   1.019   4.045  0.5730  0.0079  0.1259
  285TF    F91323143   5.084   1.070   4.111 -0.3793  0.0945 -0.4481
  285TF    F91423144   5.134   0.978   3.936  0.3364  0.3904 -0.0389
  285TF    F91523145   5.226   0.903   4.108 -0.0295  0.7212  0.3538
  286TF     S9123146   5.185   2.167   6.817  0.0045  0.2329  0.2862
  286TF     O9223147   5.108   2.140   6.940 -0.1093 -0.0776 -0.0656
  286TF     O9323148   5.193   2.060   6.720  0.0679  0.0781 -0.0746
  286TF     C9Z23149   5.087   2.299   6.725 -1.3498 -0.1742  0.1030
  286TF     F9523150   4.963   2.263   6.718  0.1818  0.1096  0.0542
  286TF     F9623151   5.126   2.303   6.594 -0.6135  0.2087  0.1888
  286TF     F9723152   5.093   2.419   6.784  0.2814 -0.0998  0.1394
  286TF     N9823153   5.324   2.234   6.843 -0.0785  0.4180  0.4757
  286TF     S9923154   5.370   2.273   6.983  0.1705  0.5513  0.0381
  286TF    O91023155   5.446   2.163   7.046  0.0921  0.4810 -0.0965
  286TF    O91123156   5.268   2.350   7.051  0.6160 -0.0826  0.3880
  286TF     C9Z23157   5.492   2.402   6.946 -0.1814  0.2198 -0.6152
  286TF    F91323158   5.604   2.363   6.883  0.2013  0.3134 -0.5027
  286TF    F91423159   5.456   2.516   6.891  0.4970 -0.3211 -0.0607
  286TF    F91523160   5.529   2.445   7.067  0.5050 -0.1150  0.0862
  287TF     S9123161   0.230   4.240   1.834 -0.3092 -0.4208  0.5160
  287TF     O9223162   0.133   4.213   1.940 -0.4163  0.3022 -0.3011
  287TF     O9323163   0.285   4.372   1.821  0.3264  0.2518  0.5832
  287TF     C9Z23164   0.380   4.137   1.871  0.5006  0.1449 -0.2722
  287TF     F9523165   0.439   4.185   1.984 -0.1255 -0.2090  0.5642
  287TF     F9623166   0.472   4.137   1.774 -0.1631 -0.7224 -0.0417
  287TF     F9723167   0.356   4.009   1.896 -0.0393 -0.0212 -0.2954
  287TF     N9823168   0.186   4.185   1.694 -0.0240  0.2601  0.0024
  287TF     S9923169   0.110   4.255   1.576 -0.5757 -0.1223 -0.2812
  287TF    O91023170   0.127   4.396   1.578 -0.2405 -0.3078 -0.0436
  287TF    O91123171  -0.012   4.191   1.541 -0.3362  0.2157 -0.7080
  287TF     C9Z23172   0.210   4.200   1.432  0.4994 -0.3241  0.3133
  287TF    F91323173   0.163   4.247   1.320 -0.2868  0.0399 -0.4006
  287TF    F91423174   0.337   4.240   1.456  0.1762  0.0715  0.3283
  287TF    F91523175   0.209   4.069   1.411  0.0872 -0.7655  0.2027
  288TF     S9123176   1.318   3.474   0.730  0.2236  0.2254 -0.0629
  288TF     O9223177   1.446   3.459   0.667 -0.2319  0.0170 -0.8317
  288TF     O9323178   1.251   3.598   0.704 -0.4370  0.2927 -0.0699
  288TF     C9Z23179   1.204   3.366   0.636  0.1887 -0.0225  0.1022
  288TF     F9523180   1.076   3.370   0.688 -0.0346 -0.0639 -0.3149
  288TF     F9623181   1.240   3.235   0.639 -0.3521  0.3084 -0.1589
  288TF     F9723182   1.204   3.404   0.508  0.5815  0.6796 -0.0349
  288TF     N9823183   1.299   3.433   0.878 -0.2657  0.1721 -0.1603
  288TF     S9923184   1.262   3.535   0.988 -0.6746 -0.2100  0.2474
  288TF    O91023185   1.118   3.551   1.000 -0.1999  0.5458 -0.0049
  288TF    O91123186   1.337   3.656   0.975  0.4218  0.0720  0.4155
  288TF     C9Z23187   1.314   3.453   1.143 -0.4520 -0.1117  0.2314
  288TF    F91323188   1.290   3.531   1.251 -0.0728  0.8083 -0.2886
  288TF    F91423189   1.245   3.335   1.157 -0.2124 -0.4335 -0.0984
  288TF    F91523190   1.445   3.426   1.145  0.1897  0.2836  0.0150
  289TF     S9123191   3.970   2.314   0.100  0.1883 -0.2761  0.3406
  289TF     O9223192   4.062   2.390   0.015  0.7702 -0.4192 -0.4380
  289TF     O9323193   3.846   2.266   0.040  0.0765  0.2193  0.8399
  289TF     C9Z23194   4.049   2.151   0.134  0.5965 -0.5470  0.3115
  289TF     F9523195   4.089   2.086   0.022  0.4074  0.1267  0.3843
  289TF     F9623196   3.974   2.070   0.208  0.2340 -0.0224 -0.0534
  289TF     F9723197   4.156   2.175   0.203  0.2965  0.4134 -0.2257
  289TF     N9823198   3.952   2.367   0.243  0.1678 -0.2891  0.0229
  289TF     S9923199   3.936   2.521   0.255  0.3845  0.1174 -0.1687
  289TF    O91023200   3.803   2.564   0.217  0.0982 -0.7879  0.0892
  289TF    O91123201   4.041   2.587   0.184  0.2254  0.6908  0.3099
  289TF     C9Z23202   3.977   2.556   0.434  0.0578 -0.3985  0.4403
  289TF    F91323203   3.893   2.483   0.515  0.1660 -0.0313  0.5060
  289TF    F91423204   4.101   2.515   0.465 -0.3016 -0.0034 -0.1980
  289TF    F91523205   3.976   2.679   0.487 -0.3122  0.7436  0.2579
  290TF     S9123206   5.138   2.566   2.815  0.1181  0.0677 -0.3418
  290TF     O9223207   5.221   2.675   2.777  0.3332  0.2789  0.2360
  290TF     O9323208   5.040   2.578   2.919  0.0932  0.0850  0.1123
  290TF     C9Z23209   5.038   2.525   2.665 -0.0186 -0.7085 -0.2625
  290TF     F9523210   4.978   2.630   2.610 -0.3857 -0.2143 -0.3450
  290TF     F9623211   4.944   2.432   2.691 -0.3630 -0.1267 -0.2536
  290TF     F9723212   5.110   2.475   2.566 -0.3593  0.4220 -0.0897
  290TF     N9823213   5.224   2.436   2.845  0.2955  0.5790 -0.1072
  290TF     S9923214   5.281   2.398   2.984 -0.5684  0.0586  0.2290
  290TF    O91023215   5.253   2.265   3.032 -0.3417  0.5585  0.2663
  290TF    O91123216   5.275   2.498   3.089  0.0815  0.0853  0.1416
  290TF     C9Z23217   5.467   2.394   2.970 -0.1484  0.1285 -0.2907
  290TF    F91323218   5.511   2.310   2.880  0.3316  0.1316  0.3061
  290TF    F91423219   5.523   2.508   2.942  0.5816  0.5378  0.5401
  290TF    F91523220   5.525   2.354   3.081  0.0007  0.2686 -0.1137
  291TF     S9123221   4.528   2.766   4.957  0.1033  0.2523 -0.4689
  291TF     O9223222   4.448   2.851   4.871 -0.0523 -0.1940  0.4132
  291TF     O9323223   4.609   2.669   4.888  0.0855 -0.4221  0.2965
  291TF     C9Z23224   4.645   2.886   5.042 -0.5807 -0.3954 -0.0794
  291TF     F9523225   4.587   2.992   5.100 -0.0003  0.0421  0.6647
  291TF     F9623226   4.736   2.944   4.964 -0.2427 -0.2764  0.2723
  291TF     F9723227   4.710   2.832   5.145 -0.3648 -0.5184 -0.0065
  291TF     N9823228   4.448   2.699   5.068  0.2460 -0.0217  0.1987
  291TF     S9923229   4.294   2.679   5.061  0.2736  0.2243 -0.0908
  291TF    O91023230   4.248   2.583   4.964  0.8320  0.5306 -0.8734
  291TF    O91123231   4.225   2.805   5.056 -0.1468  0.0446 -0.0949
  291TF     C9Z23232   4.262   2.602   5.227 -0.2784 -0.1992  0.0038
  291TF    F91323233   4.290   2.690   5.325  0.1675  0.1876  0.3476
  291TF    F91423234   4.134   2.583   5.237 -0.1005 -0.5556 -0.1976
  291TF    F91523235   4.320   2.492   5.262  0.1842 -0.4798 -0.4707
  292TF     S9123236   2.049   6.622   1.061  0.0928  0.2892  0.5100
  292TF     O9223237   2.088   6.559   1.180  0.4031 -0.3810  0.1422
  292TF     O9323238   1.911   6.606   1.011 -0.0641  0.0352 -0.5200
  292TF     C9Z23239   2.056   6.808   1.076  0.4408  0.6951 -0.6239
  292TF     F9523240   2.053   6.861   0.957  0.4108  0.1137 -0.0032
  292TF     F9623241   2.163   6.856   1.146 -0.1582 -0.1433 -0.1540
  292TF     F9723242   1.943   6.858   1.134  0.0347  0.2074  0.1699
  292TF     N9823243   2.148   6.587   0.944  0.2895  0.0932 -0.3349
  292TF     S9923244   2.150   6.437   0.911 -0.0120  0.2785  0.3800
  292TF    O91023245   2.167   6.405   0.770 -0.3357 -0.1813 -0.3222
  292TF    O91123246   2.060   6.348   0.986  0.4693 -0.1431 -0.0035
  292TF     C9Z23247   2.312   6.398   0.985  0.2730 -0.1837  0.2555
  292TF    F91323248   2.343   6.268   0.966 -0.1155  0.5652  0.5857
  292TF    F91423249   2.411   6.466   0.927  0.4412 -0.0861  0.3508
  292TF    F91523250   2.321   6.406   1.119 -0.0499  0.8057  0.1823
  293TF     S9123251   2.390   2.261   1.414  0.2652  0.0064  0.3169
  293TF     O9223252   2.303   2.193   1.323 -0.4274  0.6933 -0.7890
  293TF     O9323253   2.342   2.394   1.458 -0.4175  0.3872 -0.1451
  293TF     C9Z23254   2.382   2.158   1.573  0.4704 -0.4950  0.7419
  293TF     F9523255   2.482   2.191   1.654 -0.0358 -0.0686 -0.4845
  293TF     F9623256   2.396   2.031   1.552 -0.1189  0.1451  0.4944
  293TF     F9723257   2.266   2.170   1.643  0.0486  0.2909  0.2570
  293TF     N9823258   2.541   2.270   1.364  0.1520 -0.2456  0.3508
  293TF     S9923259   2.573   2.361   1.249 -0.0121  0.4832 -0.2753
  293TF    O91023260   2.661   2.465   1.291  0.1656  0.2681 -0.4337
  293TF    O91123261   2.461   2.412   1.179  0.2646  0.4487 -0.2009
  293TF     C9Z23262   2.676   2.250   1.134 -0.4927  0.0897 -0.2177
  293TF    F91323263   2.692   2.287   1.008 -0.5752  0.0238  0.2987
  293TF    F91423264   2.799   2.239   1.190 -0.1352 -0.4257  0.2880
  293TF    F91523265   2.626   2.127   1.123  0.1057  0.1881  0.2135
  294TF     S9123266   2.320   0.254   2.552 -0.2693 -0.1732  0.2699
  294TF     O9223267   2.368   0.250   2.686  0.4285 -0.3395 -0.0442
  294TF     O9323268   2.406   0.292   2.444 -0.8239 -0.5076 -0.0506
  294TF     C9Z23269   2.270   0.074   2.527  0.3436  0.6141 -0.7424
  294TF     F9523270   2.232   0.052   2.404  0.4827  0.0547  0.6408
  294TF     F9623271   2.167   0.048   2.606 -0.0358  0.2938 -1.0082
  294TF     F9723272   2.365  -0.014   2.560  0.3466  0.1577 -0.0238
  294TF     N9823273   2.182   0.321   2.539 -0.0743  0.1422 -0.3459
  294TF     S9923274   2.165   0.462   2.602  0.2521  0.4239  0.3028
  294TF    O91023275   2.284   0.542   2.600 -0.0817 -0.0375 -0.6059
  294TF    O91123276   2.076   0.465   2.717  0.3749 -0.3567 -0.5220
  294TF     C9Z23277   2.065   0.550   2.484  0.1513  0.2550  0.3436
  294TF    F91323278   2.122   0.562   2.364  0.2891 -0.4554  0.5132
  294TF    F91423279   1.937   0.495   2.466 -0.2735 -0.4010  0.0916
  294TF    F91523280   2.050   0.675   2.532  0.4466  0.1061 -0.4787
  295TF     S9123281   1.448   5.492   0.281  0.3438  0.1910  0.0060
  295TF     O9223282   1.493   5.477   0.144 -0.1974  0.4440  0.1903
  295TF     O9323283   1.541   5.462   0.387  0.7290 -0.3213 -0.2310
  295TF     C9Z23284   1.424   5.687   0.284 -0.0922 -0.3530 -1.1388
  295TF     F9523285   1.351   5.733   0.390 -0.0679  0.0388 -0.3419
  295TF     F9623286   1.369   5.737   0.176 -0.2215  0.1010  0.1209
  295TF     F9723287   1.543   5.756   0.293  0.3903 -0.3399  0.0963
  295TF     N9823288   1.298   5.441   0.308  0.3687  0.7776 -0.5976
  295TF     S9923289   1.275   5.310   0.383 -0.2678 -0.1599 -0.0263
  295TF    O91023290   1.393   5.232   0.389  0.1821  0.7321  0.1423
  295TF    O91123291   1.155   5.244   0.343  0.3446  0.5198 -0.4948
  295TF     C9Z23292   1.246   5.374   0.560  0.0567  0.5931  0.4847
  295TF    F91323293   1.265   5.270   0.651  0.1380 -0.1075 -0.2137
  295TF    F91423294   1.330   5.470   0.610  0.2636  0.3014 -0.2099
  295TF    F91523295   1.127   5.428   0.589 -0.3186  0.6314 -0.0178
  296TF     S9123296   0.532   4.921   0.122 -0.4088 -0.4095 -0.2514
  296TF     O9223297   0.637   5.014   0.146 -0.7536 -0.0173  0.3401
  296TF     O9323298   0.529   4.847  -0.005 -0.7895 -0.1616  0.2775
  296TF     C9Z23299   0.556   4.780   0.243 -0.2008  0.6384 -0.2926
  296TF     F9523300   0.557   4.820   0.370  0.6789  0.4884  0.1781
  296TF     F9623301   0.664   4.710   0.222  0.3622 -0.3622  0.0680
  296TF     F9723302   0.452   4.691   0.242 -0.5324  0.0553  0.2967
  296TF     N9823303   0.384   4.966   0.154  0.1283 -0.0560  0.4099
  296TF     S9923304   0.338   5.107   0.173 -0.2722 -0.5310 -0.4024
  296TF    O91023305   0.203   5.111   0.131  0.1031 -0.0136 -0.0308
  296TF    O91123306   0.432   5.204   0.131 -0.2154  0.4245  0.7674
  296TF     C9Z23307   0.332   5.115   0.358 -0.0257 -0.2627 -0.7311
  296TF    F91323308   0.278   5.002   0.406  0.0025 -0.1479 -0.7933
  296TF    F91423309   0.446   5.141   0.423  0.0829  0.2569 -0.3517
  296TF    F91523310   0.246   5.214   0.393  0.3048 -0.0393  0.0353
  297TF     S9123311   0.901   3.378   5.350 -0.2268  0.1154  0.2973
  297TF     O9223312   0.919   3.251   5.278 -0.4728 -0.2216  0.4412
  297TF     O9323313   1.021   3.460   5.369  0.6560  0.1509  0.1272
  297TF     C9Z23314   0.793   3.482   5.228  0.1511 -0.3751  0.6977
  297TF     F9523315   0.856   3.494   5.111 -0.3241 -0.3214 -0.5181
  297TF     F9623316   0.755   3.603   5.276  0.5572  0.0464 -0.1089
  297TF     F9723317   0.683   3.414   5.198 -0.3272 -0.1979 -0.9059
  297TF     N9823318   0.804   3.360   5.473 -0.1800  0.1459 -0.3744
  297TF     S9923319   0.850   3.350   5.617  0.3409  0.3830 -0.1332
  297TF    O91023320   0.959   3.438   5.651 -0.2716  0.2580 -0.0079
  297TF    O91123321   0.851   3.216   5.663  0.2240 -0.1798  0.0073
  297TF     C9Z23322   0.707   3.431   5.703  0.2515 -0.2081 -0.3616
  297TF    F91323323   0.595   3.362   5.686  0.2961  0.1228  0.4810
  297TF    F91423324   0.727   3.442   5.832 -0.2948  0.1132 -0.1964
  297TF    F91523325   0.689   3.556   5.669 -0.3578 -0.4395  0.0577
  298TF     S9123326   0.499   6.256   5.262  0.2843 -0.2006 -0.0912
  298TF     O9223327   0.362   6.260   5.209  0.9797 -0.6167  0.0899
  298TF     O9323328   0.588   6.340   5.187  0.0688 -0.7880  0.5230
  298TF     C9Z23329   0.472   6.322   5.431  0.5266  0.0216  0.1847
  298TF     F9523330   0.383   6.419   5.448 -0.0751  0.0561 -0.0389
  298TF     F9623331   0.577   6.367   5.492  0.1782  0.7688 -0.2851
  298TF     F9723332   0.434   6.221   5.508 -0.1616  0.1250  0.0858
  298TF     N9823333   0.557   6.117   5.291  0.8262 -0.6697  0.4918
  298TF     S9923334   0.707   6.090   5.311 -0.2210  0.1270 -0.1159
  298TF    O91023335   0.725   5.980   5.402 -0.2606 -0.7865  0.0976
  298TF    O91123336   0.775   6.214   5.343 -0.1235  0.2043 -0.6374
  298TF     C9Z23337   0.772   6.021   5.149  0.1609 -0.2028  0.4720
  298TF    F91323338   0.756   6.105   5.042 -0.5799  0.0236  0.1090
  298TF    F91423339   0.903   5.998   5.152 -0.3749 -0.1738  0.4631
  298TF    F91523340   0.729   5.908   5.101 -0.0180 -0.0444  0.7330
  299TF     S9123341   2.140   4.314   0.701  0.1942  0.0193 -0.2274
  299TF     O9223342   2.124   4.278   0.838  0.0565 -0.0732 -0.5880
  299TF     O9323343   2.036   4.276   0.613  0.5366 -0.3896  0.0128
  299TF     C9Z23344   2.133   4.501   0.701  0.0089 -0.6958  0.4573
  299TF     F9523345   2.016   4.550   0.736  0.2756 -0.4918 -0.0556
  299TF     F9623346   2.155   4.554   0.584 -0.0414  0.2809  0.3910
  299TF     F9723347   2.221   4.557   0.780  0.1856  0.3284  0.2900
  299TF     N9823348   2.275   4.280   0.641 -0.0645  0.3602  0.8469
  299TF     S9923349   2.360   4.156   0.675 -0.2896  0.1497 -0.4415
  299TF    O91023350   2.331   4.036   0.600 -0.1835 -0.2865  0.4073
  299TF    O91123351   2.381   4.147   0.817  0.5724  0.3664  0.1770
  299TF     C9Z23352   2.530   4.208   0.608 -0.1750 -0.3388 -0.6904
  299TF    F91323353   2.521   4.269   0.494  0.0637 -0.2046  0.8554
  299TF    F91423354   2.593   4.292   0.688  0.1073  0.4842  0.0778
  299TF    F91523355   2.624   4.112   0.589 -0.1656 -0.4164 -0.4038
  300TF     S9123356   1.194   6.373   2.961  0.6474 -0.3562 -0.2806
  300TF     O9223357   1.162   6.432   3.089  0.6692 -0.5540 -0.3993
  300TF     O9323358   1.123   6.257   2.912  0.3675  0.4175  0.2892
  300TF     C9Z23359   1.147   6.497   2.844  0.1936 -0.3602 -0.1256
  300TF     F9523360   1.194   6.464   2.724  0.3785  0.1546 -0.1661
  300TF     F9623361   1.194   6.623   2.869 -0.1752 -0.2592  0.2600
  300TF     F9723362   1.015   6.502   2.832  0.1150  0.4215 -0.2406
  300TF     N9823363   1.346   6.366   2.937  0.1386  0.0776  0.0484
  300TF     S9923364   1.461   6.377   3.041  0.7606  0.2380  0.4458
  300TF    O91023365   1.515   6.246   3.075  0.0177 -0.0214  0.0532
  300TF    O91123366   1.442   6.461   3.158 -0.0498  0.7615 -0.4873
  300TF     C9Z23367   1.594   6.465   2.944  0.7896 -0.1995  0.0769
  300TF    F91323368   1.561   6.594   2.926  0.1088  0.8457 -0.3660
  300TF    F91423369   1.708   6.464   3.010  0.6218  0.2352  0.0545
  300TF    F91523370   1.636   6.427   2.822  0.1679  0.3584  0.0293
  301TF     S9123371   5.254   4.194   0.945  0.5565 -0.0376  0.5891
  301TF     O9223372   5.379   4.269   0.937 -0.0730 -0.3660  0.2135
  301TF     O9323373   5.129   4.267   0.925 -0.8800 -0.2216 -0.4183
  301TF     C9Z23374   5.273   4.087   0.792  1.0933  0.8311 -0.9111
  301TF     F9523375   5.157   4.029   0.752 -0.6054 -1.0493 -1.0145
  301TF     F9623376   5.365   3.994   0.807  0.2881 -0.2920 -0.1971
  301TF     F9723377   5.319   4.155   0.691 -0.0496  0.2638  0.1293
  301TF     N9823378   5.254   4.088   1.066  0.0815 -0.2751  0.5139
  301TF     S9923379   5.131   4.036   1.136 -0.3608  0.4203  0.6139
  301TF    O91023380   5.064   3.942   1.053  0.3258  0.3595 -0.3831
  301TF    O91123381   5.061   4.144   1.201 -0.0835  0.4767  0.4068
  301TF     C9Z23382   5.200   3.941   1.274  0.4886  0.6868  0.4785
  301TF    F91323383   5.111   3.854   1.320 -0.0536 -0.1871  0.4171
  301TF    F91423384   5.299   3.865   1.233 -0.2551 -0.8409  0.4105
  301TF    F91523385   5.241   4.006   1.383  0.0471  0.2182 -0.3182
  302TF     S9123386   2.081   6.028   1.632  0.1538  0.4661  0.0978
  302TF     O9223387   2.168   5.987   1.522 -0.3604 -0.0487  0.3690
  302TF     O9323388   2.039   5.922   1.719  0.2148 -0.1111  0.7175
  302TF     C9Z23389   2.192   6.128   1.744 -0.3847  0.2228  0.1154
  302TF     F9523390   2.300   6.057   1.788 -0.3937  0.5298 -0.1483
  302TF     F9623391   2.140   6.166   1.863 -0.3836  0.6438  0.1585
  302TF     F9723392   2.244   6.231   1.681 -0.0068 -0.3361  0.6059
  302TF     N9823393   1.967   6.127   1.597 -0.7318  0.6748 -0.2035
  302TF     S9923394   1.876   6.107   1.469 -0.5692 -0.3127  0.1968
  302TF    O91023395   1.901   5.992   1.388 -0.0954  0.4525 -0.2427
  302TF    O91123396   1.852   6.234   1.408  0.7528  0.2558 -0.4640
  302TF     C9Z23397   1.712   6.063   1.550 -1.0667  0.0793  0.4493
  302TF    F91323398   1.620   6.046   1.455  0.5366 -0.1606 -0.4481
  302TF    F91423399   1.725   5.951   1.615 -0.4040 -0.2968  0.5635
  302TF    F91523400   1.664   6.153   1.633 -0.9588  0.3227  0.3183
  303TF     S9123401   4.924   0.493   2.928 -0.0202  0.1040 -0.4415
  303TF     O9223402   4.870   0.426   2.809 -0.2701 -0.4787  0.0852
  303TF     O9323403   4.942   0.412   3.046  0.2072  0.3533 -0.0512
  303TF     C9Z23404   5.091   0.556   2.866 -0.3613  0.0094 -1.3129
  303TF     F9523405   5.130   0.501   2.752  0.3759  0.4661 -0.0451
  303TF     F9623406   5.190   0.534   2.943 -0.0531 -0.1549 -0.0961
  303TF     F9723407   5.087   0.686   2.846 -0.3059 -0.0725  0.0154
  303TF     N9823408   4.854   0.617   2.971 -0.0630  0.5340  0.3059
  303TF     S9923409   4.700   0.613   3.005  0.2062  0.3621 -0.6020
  303TF    O91023410   4.673   0.543   3.127 -0.4046 -0.1273 -0.3607
  303TF    O91123411   4.607   0.591   2.898 -0.4948 -0.3841 -0.2787
  303TF     C9Z23412   4.668   0.786   3.035 -0.3107  0.5040 -0.8368
  303TF    F91323413   4.696   0.874   2.940 -0.1177  0.0072 -0.3071
  303TF    F91423414   4.540   0.797   3.072  0.0334 -0.1250  0.2515
  303TF    F91523415   4.745   0.828   3.140  0.4518 -0.0077  0.2584
  304TF     S9123416   1.646   2.059   4.242  0.1223 -0.1085 -0.0042
  304TF     O9223417   1.509   2.110   4.219 -0.1561  0.2770  0.1080
  304TF     O9323418   1.685   1.960   4.144  0.4110  0.4865  0.3520
  304TF     C9Z23419   1.754   2.200   4.214 -0.3077  0.3608  0.1585
  304TF     F9523420   1.757   2.295   4.310 -0.4552  0.2679  0.1823
  304TF     F9623421   1.720   2.262   4.102  0.0387 -1.1172 -0.3420
  304TF     F9723422   1.877   2.167   4.193 -0.1257  0.4085  0.0311
  304TF     N9823423   1.668   2.016   4.393 -1.0127 -0.9600 -0.0189
  304TF     S9923424   1.638   1.866   4.427  0.2468 -0.0164 -0.4494
  304TF    O91023425   1.754   1.779   4.409 -0.6845 -0.3611  0.2345
  304TF    O91123426   1.520   1.823   4.359 -0.1187  0.6472 -0.7203
  304TF     C9Z23427   1.592   1.876   4.614  0.0253 -0.0992  0.1520
  304TF    F91323428   1.563   1.755   4.659 -0.2197  0.1645 -0.7217
  304TF    F91423429   1.685   1.930   4.693  0.0702  0.2193  0.0057
  304TF    F91523430   1.490   1.948   4.631 -0.2204 -0.0941  0.0616
  305TF     S9123431   3.452   5.342   1.308 -0.3221 -0.1635 -0.1037
  305TF     O9223432   3.360   5.253   1.241  0.0780  0.1798  0.7697
  305TF     O9323433   3.453   5.480   1.264 -0.1958 -0.3400  0.5077
  305TF     C9Z23434   3.404   5.335   1.491 -0.1459  0.7805 -0.2960
  305TF     F9523435   3.383   5.206   1.521  0.1021 -0.1310  0.3051
  305TF     F9623436   3.289   5.399   1.524  0.0778  0.0114 -0.1954
  305TF     F9723437   3.500   5.376   1.575  0.0677 -0.2141 -0.0326
  305TF     N9823438   3.594   5.277   1.310  0.1259  0.1233  0.1801
  305TF     S9923439   3.637   5.218   1.173  0.1064 -0.0947 -0.3552
  305TF    O91023440   3.614   5.307   1.061 -0.0628 -0.1012  0.4359
  305TF    O91123441   3.599   5.077   1.160 -0.5318 -0.6956 -0.1865
  305TF     C9Z23442   3.825   5.222   1.180  0.1397  0.2709 -0.0473
  305TF    F91323443   3.870   5.144   1.280  0.0513  0.3895 -0.2588
  305TF    F91423444   3.877   5.174   1.067  0.0092  0.1782  0.0512
  305TF    F91523445   3.880   5.338   1.204 -0.2084  0.5115  0.5803
  306TF     S9123446   5.448   3.824   4.208 -0.0829 -0.5492 -0.5166
  306TF     O9223447   5.499   3.753   4.097  0.1364  0.6288  0.3902
  306TF     O9323448   5.316   3.792   4.257 -0.3114  0.7055 -0.4673
  306TF     C9Z23449   5.558   3.784   4.348  0.1374  0.5740 -0.2254
  306TF     F9523450   5.538   3.659   4.388 -0.0898  0.0335 -0.1216
  306TF     F9623451   5.540   3.857   4.457  0.1637 -0.1320 -0.2157
  306TF     F9723452   5.687   3.784   4.328 -0.3897  0.0434  0.1980
  306TF     N9823453   5.469   3.975   4.195 -0.0128 -0.2178 -0.2222
  306TF     S9923454   5.585   4.031   4.107  0.0341 -0.2194  0.2188
  306TF    O91023455   5.580   3.994   3.966  0.4404  0.5995 -0.1199
  306TF    O91123456   5.709   4.020   4.183 -0.4080 -0.0283 -0.2801
  306TF     C9Z23457   5.537   4.209   4.117  0.3475  0.6318  0.2063
  306TF    F91323458   5.432   4.227   4.046  0.1716  0.6082  0.1064
  306TF    F91423459   5.504   4.238   4.241  0.1809  0.0770 -0.2159
  306TF    F91523460   5.631   4.302   4.085  0.0825 -0.6535 -0.1296
  307TF     S9123461   6.207   5.951   3.198 -0.0034 -0.2226  0.3695
  307TF     O9223462   6.292   5.933   3.313  0.6536 -0.4431  0.1950
  307TF     O9323463   6.084   5.876   3.196  0.1211  0.1865  0.2557
  307TF     C9Z23464   6.157   6.125   3.191 -0.5674  0.1558  0.3598
  307TF     F9523465   6.260   6.207   3.178 -0.5391  0.5314 -0.0627
  307TF     F9623466   6.089   6.168   3.296  0.0804  0.4618 -0.0302
  307TF     F9723467   6.082   6.154   3.087 -0.1304 -0.5090 -0.5711
  307TF     N9823468   6.273   5.931   3.057 -0.7462 -0.0424 -0.6792
  307TF     S9923469   6.426   5.902   3.053  0.0751 -0.0745  0.2353
  307TF    O91023470   6.458   5.766   3.090 -0.2354  0.1019 -0.1806
  307TF    O91123471   6.519   6.008   3.096  0.5190 -0.0051 -0.1625
  307TF     C9Z23472   6.459   5.899   2.870 -0.3867  0.1535  0.5532
  307TF    F91323473   6.585   5.863   2.851  0.1233 -0.4144 -0.2325
  307TF    F91423474   6.394   5.804   2.812 -0.1431 -0.2438 -0.6174
  307TF    F91523475   6.437   6.006   2.794  0.4965 -0.1185 -0.1004
  308TF     S9123476   3.631   3.655   4.361  0.1108 -0.1670 -0.3269
  308TF     O9223477   3.509   3.578   4.334  0.1327 -0.3233  1.0349
  308TF     O9323478   3.630   3.749   4.472  0.0357  0.2700  0.2256
  308TF     C9Z23479   3.755   3.527   4.410 -0.0946  0.1856  0.0230
  308TF     F9523480   3.872   3.587   4.440 -0.2794 -0.2267  0.8513
  308TF     F9623481   3.778   3.438   4.316 -0.3786 -0.3235 -0.1756
  308TF     F9723482   3.714   3.459   4.516 -0.0246 -0.2507 -0.1783
  308TF     N9823483   3.686   3.718   4.225 -0.2145  0.0866  0.7532
  308TF     S9923484   3.638   3.851   4.168  0.0018  0.0521  0.2879
  308TF    O91023485   3.653   3.957   4.263  0.4724 -0.5207  0.2458
  308TF    O91123486   3.514   3.837   4.095 -0.0827 -0.3214 -0.0941
  308TF     C9Z23487   3.775   3.887   4.052 -0.2098  0.2175 -0.2317
  308TF    F91323488   3.789   3.793   3.962 -0.2091 -0.2377 -0.3874
  308TF    F91423489   3.758   4.004   3.991  0.0331  0.1608 -0.1316
  308TF    F91523490   3.892   3.887   4.114 -0.2913  0.4759 -0.2199
  309TF     S9123491   0.493   5.611   1.829 -0.1037 -0.0367 -0.4327
  309TF     O9223492   0.490   5.752   1.860 -0.2501 -0.2998  0.6216
  309TF     O9323493   0.377   5.533   1.862  0.5846 -0.2048 -0.5341
  309TF     C9Z23494   0.505   5.599   1.643 -0.0898 -0.3611 -0.6107
  309TF     F9523495   0.518   5.476   1.593  0.2864  0.2993  0.1026
  309TF     F9623496   0.607   5.667   1.591  0.0481  0.0541  0.0724
  309TF     F9723497   0.400   5.655   1.577 -0.1648 -0.1517  0.0965
  309TF     N9823498   0.617   5.540   1.879 -0.0008 -1.0129  0.6529
  309TF     S9923499   0.611   5.435   1.998 -0.4304  0.4184  0.0657
  309TF    O91023500   0.574   5.305   1.959  0.1935  0.5507  0.9490
  309TF    O91123501   0.546   5.497   2.113 -0.3163 -0.3897  0.4176
  309TF     C9Z23502   0.788   5.425   2.051  0.4121 -0.9289 -0.2009
  309TF    F91323503   0.790   5.352   2.161  0.0638 -0.3473 -0.1031
  309TF    F91423504   0.868   5.380   1.961 -0.2025 -0.6872  0.5614
  309TF    F91523505   0.846   5.540   2.081  0.3808 -0.3625 -0.3569
  310TF     S9123506   0.444   3.655   1.013  0.2029 -0.0509  0.1714
  310TF     O9223507   0.423   3.653   0.867  0.7175 -0.5446 -0.2286
  310TF     O9323508   0.519   3.763   1.069  0.2890 -0.6645  0.0831
  310TF     C9Z23509   0.282   3.666   1.096  0.0140  0.2809  0.1280
  310TF     F9523510   0.212   3.778   1.073 -0.1440  0.5848 -0.4996
  310TF     F9623511   0.293   3.664   1.235  0.3455  0.2587  0.7366
  310TF     F9723512   0.199   3.568   1.068 -0.1349  0.0031  0.5510
  310TF     N9823513   0.499   3.512   1.060  0.0590  0.6939  0.7716
  310TF     S9923514   0.599   3.497   1.175 -0.6575  0.2050  0.1487
  310TF    O91023515   0.598   3.608   1.273  0.2635 -0.4346  0.2446
  310TF    O91123516   0.733   3.450   1.129 -0.2652  0.2815 -0.0360
  310TF     C9Z23517   0.526   3.356   1.268 -0.8789  0.1579 -0.6238
  310TF    F91323518   0.490   3.253   1.195  0.1083 -0.5078 -0.4521
  310TF    F91423519   0.617   3.302   1.352 -0.0617 -0.7716  0.4661
  310TF    F91523520   0.427   3.392   1.345 -0.1439  0.6607 -0.2261
  311TF     S9123521   1.294   6.583   1.203 -0.0985  0.3432 -0.5939
  311TF     O9223522   1.191   6.535   1.118 -0.3229 -0.3825  0.2879
  311TF     O9323523   1.390   6.674   1.146  0.1208 -0.4481 -0.0167
  311TF     C9Z23524   1.198   6.676   1.339 -0.0034 -1.0402 -0.3935
  311TF     F9523525   1.287   6.746   1.410 -0.4261 -0.0542 -0.6250
  311TF     F9623526   1.125   6.600   1.415  0.1129 -1.0218 -0.3720
  311TF     F9723527   1.117   6.767   1.289 -0.0039 -0.6870 -0.5918
  311TF     N9823528   1.369   6.478   1.285 -0.3167 -0.0916  0.5344
  311TF     S9923529   1.513   6.429   1.248 -0.1060 -0.6275  0.6348
  311TF    O91023530   1.559   6.457   1.114 -0.3245 -0.4449  0.0348
  311TF    O91123531   1.537   6.296   1.297  0.2884  0.2863 -0.3829
  311TF     C9Z23532   1.619   6.532   1.352 -0.3010 -0.1625 -0.9655
  311TF    F91323533   1.565   6.523   1.474 -0.2288 -0.7724  0.0587
  311TF    F91423534   1.743   6.481   1.368  0.1793  0.8033  0.5787
  311TF    F91523535   1.638   6.665   1.342 -0.3890  0.0307 -0.0665
  312TF     S9123536   4.323   1.555   0.989 -0.5142 -0.2770  0.1529
  312TF     O9223537   4.286   1.579   0.848  0.2617 -0.5003 -0.6859
  312TF     O9323538   4.457   1.509   1.018  0.8212  0.2202  0.5991
  312TF     C9Z23539   4.314   1.717   1.078 -0.4300  0.9682 -0.2119
  312TF     F9523540   4.191   1.761   1.096 -0.5012 -0.0563  0.0901
  312TF     F9623541   4.384   1.810   1.014 -0.1842  0.5492 -0.4224
  312TF     F9723542   4.366   1.708   1.198 -0.1294 -0.7697 -0.1711
  312TF     N9823543   4.223   1.469   1.060  0.1118 -0.2283 -0.5165
  312TF     S9923544   4.199   1.321   1.021  0.2646 -0.2909 -0.0445
  312TF    O91023545   4.202   1.294   0.875 -0.0279 -0.3343  1.3560
  312TF    O91123546   4.086   1.264   1.097  0.2846 -0.5310  0.3693
  312TF     C9Z23547   4.339   1.217   1.088  0.3452 -0.4856  0.1415
  312TF    F91323548   4.343   1.205   1.223 -0.0318  0.2438  0.2553
  312TF    F91423549   4.342   1.086   1.040  0.1099 -0.0294 -0.0768
  312TF    F91523550   4.454   1.258   1.052 -0.7142  0.6364  0.0846
  313TF     S9123551   4.776   5.064   3.275  0.1788 -0.0764 -0.0498
  313TF     O9223552   4.722   5.193   3.240 -0.5429  0.5491  0.3948
  313TF     O9323553   4.809   4.987   3.159  0.6341  0.0141 -0.0055
  313TF     C9Z23554   4.932   5.088   3.361  0.1004 -0.2027 -0.1181
  313TF     F9523555   5.011   5.183   3.314  0.3769 -0.0118  0.1450
  313TF     F9623556   5.013   4.980   3.346  0.0801  0.3404 -0.3076
  313TF     F9723557   4.911   5.110   3.490 -0.3492 -0.5820  0.0082
  313TF     N9823558   4.695   4.980   3.372  0.0135 -0.8244  0.2829
  313TF     S9923559   4.549   5.018   3.417  0.1421  0.0933  0.0267
  313TF    O91023560   4.460   4.979   3.311 -0.0027  0.6636  0.4228
  313TF    O91123561   4.527   5.145   3.485 -0.3974 -0.4076  0.3270
  313TF     C9Z23562   4.519   4.906   3.555 -0.0131  0.2805 -1.3742
  313TF    F91323563   4.561   4.960   3.672  0.0596 -0.9044  0.3625
  313TF    F91423564   4.382   4.898   3.577 -0.4560  0.1575 -0.1967
  313TF    F91523565   4.559   4.779   3.563 -0.2747  0.5477 -0.4202
  314TF     S9123566   6.893   1.342   3.062 -0.3209 -0.0387  0.1369
  314TF     O9223567   6.805   1.426   3.137  0.4368 -0.1765 -0.2616
  314TF     O9323568   6.985   1.255   3.133 -0.1314 -0.0551  0.0670
  314TF     C9Z23569   6.791   1.217   2.979  0.1112  0.4951  0.3464
  314TF     F9523570   6.723   1.274   2.881  0.3809  0.0981  0.3902
  314TF     F9623571   6.699   1.166   3.064 -0.1423 -0.2655  0.5526
  314TF     F9723572   6.872   1.116   2.938 -0.1049 -0.2030 -0.9611
  314TF     N9823573   6.972   1.420   2.954 -0.0252 -0.1641  0.4473
  314TF     S9923574   7.079   1.525   2.996  0.0056  0.5789 -0.1502
  314TF    O91023575   7.115   1.518   3.141 -0.7267  0.5223  0.1235
  314TF    O91123576   7.046   1.655   2.942 -0.5444 -0.5032  0.1276
  314TF     C9Z23577   7.227   1.476   2.893  0.7012 -0.2103  0.4233
  314TF    F91323578   7.322   1.562   2.896  0.4208  0.4625  0.2083
  314TF    F91423579   7.287   1.370   2.945 -0.1892 -0.2755 -0.2292
  314TF    F91523580   7.233   1.443   2.764 -0.4800  0.4582  0.2928
  315TF     S9123581   4.313   5.149   0.712  0.0893  0.3137  0.1268
  315TF     O9223582   4.339   5.104   0.848 -0.1418 -0.0873  0.0420
  315TF     O9323583   4.328   5.291   0.679  0.7842 -0.1671 -0.0271
  315TF     C9Z23584   4.443   5.063   0.604  0.2621  0.0663  0.1908
  315TF     F9523585   4.561   5.056   0.668 -0.1567 -0.0899  0.2485
  315TF     F9623586   4.455   5.118   0.481 -0.6210 -0.7881 -0.1797
  315TF     F9723587   4.410   4.933   0.587  0.4414 -0.4069 -0.1733
  315TF     N9823588   4.191   5.084   0.650  0.0398 -0.1185 -1.0260
  315TF     S9923589   4.047   5.100   0.708  0.1186  0.4151  0.0369
  315TF    O91023590   3.954   5.099   0.597 -0.0599 -0.1125 -0.2950
  315TF    O91123591   4.029   5.198   0.814 -0.1337 -0.4040 -0.3645
  315TF     C9Z23592   4.015   4.934   0.779 -0.7881 -0.6098 -0.1294
  315TF    F91323593   4.096   4.898   0.880 -0.2959  0.1438  0.3145
  315TF    F91423594   3.895   4.930   0.833  0.5464  0.1706  0.4535
  315TF    F91523595   4.025   4.834   0.686  0.5325 -0.3967 -0.3707
  316TF     S9123596   0.347   3.448   6.468 -0.2051 -0.0215  0.0335
  316TF     O9223597   0.272   3.343   6.530  0.2613  0.6132 -0.2706
  316TF     O9323598   0.293   3.581   6.469  0.4297  0.1313  0.3045
  316TF     C9Z23599   0.494   3.470   6.558  0.1653  0.2145  0.0087
  316TF     F9523600   0.549   3.592   6.533  0.2573 -0.0579 -0.1067
  316TF     F9623601   0.584   3.376   6.536 -0.0925 -0.1725 -0.2842
  316TF     F9723602   0.467   3.467   6.688 -0.6085  0.2965  0.6056
  316TF     N9823603   0.399   3.415   6.328  0.1937  0.3339 -0.8808
  316TF     S9923604   0.344   3.485   6.203 -0.0230  0.1074 -0.1132
  316TF    O91023605   0.436   3.581   6.156  0.3454  0.3275  0.2393
  316TF    O91123606   0.204   3.524   6.214  0.0814 -0.5078  0.0001
  316TF     C9Z23607   0.344   3.347   6.084 -0.4754  0.0073  0.4270
  316TF    F91323608   0.256   3.248   6.113  0.4596 -0.5706 -0.1296
  316TF    F91423609   0.308   3.402   5.968  0.1424 -0.1103  0.5238
  316TF    F91523610   0.463   3.286   6.068  1.2634 -0.1754  0.3387
  317TF     S9123611   5.080   6.199   1.940 -0.1195 -0.5501 -0.5464
  317TF     O9223612   4.960   6.129   1.968 -0.4833 -0.6281  0.5087
  317TF     O9323613   5.113   6.315   2.021  0.6376  0.3173 -0.0635
  317TF     C9Z23614   5.209   6.082   1.967  0.4189 -0.4462 -0.0743
  317TF     F9523615   5.218   6.034   2.092  0.0066 -0.6847  0.1924
  317TF     F9623616   5.327   6.138   1.949  0.5971  0.6172  0.2257
  317TF     F9723617   5.193   5.974   1.891 -0.1386  0.0373  0.0673
  317TF     N9823618   5.108   6.226   1.789  0.1471 -0.2480 -0.3160
  317TF     S9923619   4.981   6.273   1.708  0.0873 -0.0697  0.3125
  317TF    O91023620   4.902   6.374   1.781 -0.3222 -0.3344  0.0709
  317TF    O91123621   4.913   6.156   1.650 -0.2731  0.4447 -0.0696
  317TF     C9Z23622   5.064   6.343   1.564 -0.0093 -0.1977  0.3053
  317TF    F91323623   5.105   6.239   1.502 -0.0195 -0.1869  0.1202
  317TF    F91423624   4.985   6.406   1.483 -0.0130 -0.0443 -0.1495
  317TF    F91523625   5.168   6.419   1.592 -0.5142 -0.4297 -0.7590
  318TF     S9123626   2.129   2.122   0.254 -0.0753 -0.2904 -0.1219
  318TF     O9223627   2.186   2.257   0.264 -0.6663  0.5877  0.0453
  318TF     O9323628   2.193   2.013   0.324 -0.0843  0.2452 -0.5433
  318TF     C9Z23629   1.960   2.132   0.331 -0.1228 -0.1691 -0.0423
  318TF     F9523630   1.888   2.236   0.282  0.0516 -0.5020 -0.2869
  318TF     F9623631   1.957   2.159   0.462 -0.2201 -0.3759 -0.6197
  318TF     F9723632   1.881   2.029   0.312  0.0377 -0.6993  1.1339
  318TF     N9823633   2.085   2.089   0.107 -0.6857 -0.1965  0.8534
  318TF     S9923634   2.181   2.011   0.016  0.1417  0.4269 -0.4284
  318TF    O91023635   2.322   2.012   0.059 -0.0515 -0.4816  0.1484
  318TF    O91123636   2.160   2.043  -0.122  0.2852 -0.3032  0.2765
  318TF     C9Z23637   2.121   1.831   0.032  0.1939  0.2969  0.0631
  318TF    F91323638   2.192   1.743  -0.042  0.1658  0.4428 -0.0498
  318TF    F91423639   2.118   1.785   0.154  0.1594  0.4055  0.3388
  318TF    F91523640   1.994   1.809  -0.011  0.1855 -0.0414  0.0607
  319TF     S9123641   5.001   3.445   5.580  0.0935  0.2658 -0.2218
  319TF     O9223642   4.933   3.371   5.688 -0.4461 -0.6494 -0.2823
  319TF     O9323643   5.137   3.483   5.594  0.7987  0.0225  0.4938
  319TF     C9Z23644   5.003   3.331   5.423  0.2284 -0.4734  0.2943
  319TF     F9523645   5.068   3.216   5.450 -0.3141  0.1458  0.1460
  319TF     F9623646   5.071   3.394   5.329  0.7399  0.2391 -0.1591
  319TF     F9723647   4.881   3.303   5.379  0.4538  0.5259  0.0034
  319TF     N9823648   4.912   3.560   5.519 -0.3676  0.3378 -0.0766
  319TF     S9923649   4.950   3.704   5.545 -0.3168 -0.6215  0.0282
  319TF    O91023650   5.014   3.764   5.433  0.1075  0.4386 -0.6340
  319TF    O91123651   4.995   3.728   5.681  0.1520 -0.2124  0.9881
  319TF     C9Z23652   4.791   3.786   5.540 -0.4424  0.3336  0.8854
  319TF    F91323653   4.709   3.733   5.630 -0.2878 -0.2915  0.2072
  319TF    F91423654   4.797   3.914   5.568 -0.3651 -0.3468  0.0797
  319TF    F91523655   4.724   3.778   5.427  0.2513 -0.0347 -0.1631
  320TF     S9123656   2.253   4.623   2.813 -0.0114  0.2362  0.5869
  320TF     O9223657   2.325   4.568   2.701  0.5113  1.5037 -0.1765
  320TF     O9323658   2.252   4.765   2.837 -0.2912  0.0681 -0.0672
  320TF     C9Z23659   2.079   4.588   2.767  0.3936 -0.0545 -0.4831
  320TF     F9523660   2.048   4.460   2.761  0.1376  0.2459 -0.2485
  320TF     F9623661   2.043   4.644   2.649  0.0559  0.0693 -0.1937
  320TF     F9723662   1.992   4.636   2.853 -0.2967  0.1889 -0.0354
  320TF     N9823663   2.276   4.542   2.941  0.2623  0.2629 -0.7640
  320TF     S9923664   2.411   4.482   2.985  0.1529 -0.5071 -0.1840
  320TF    O91023665   2.508   4.494   2.880  0.2006  0.3773 -0.2274
  320TF    O91123666   2.395   4.351   3.042  0.0859 -0.2513  0.0646
  320TF     C9Z23667   2.479   4.593   3.118  0.5050  0.0808  0.1679
  320TF    F91323668   2.424   4.557   3.240 -0.5167  1.0885 -0.0482
  320TF    F91423669   2.615   4.580   3.124  0.2109  0.3776  0.2330
  320TF    F91523670   2.451   4.719   3.098 -0.0513 -0.3037  0.0548
  321TF     S9123671   1.368   5.461   5.896 -0.5864  0.2733  0.0763
  321TF     O9223672   1.302   5.362   5.819 -0.5176 -0.5430  0.5917
  321TF     O9323673   1.492   5.523   5.843  0.4406 -0.8464  0.0315
  321TF     C9Z23674   1.244   5.598   5.918 -0.2423 -1.1479 -0.2261
  321TF     F9523675   1.214   5.650   5.802 -0.5986 -0.1038 -0.1090
  321TF     F9623676   1.295   5.705   5.984 -0.7507 -0.0055 -0.9380
  321TF     F9723677   1.125   5.563   5.974 -0.0001 -0.1364  0.5341
  321TF     N9823678   1.387   5.410   6.038  0.0609  0.0994 -0.4146
  321TF     S9923679   1.440   5.264   6.056 -0.0724 -0.3405 -0.4056
  321TF    O91023680   1.530   5.225   5.959 -0.3186 -0.0656 -0.2584
  321TF    O91123681   1.342   5.169   6.092  0.1134  0.3889  0.2050
  321TF     C9Z23682   1.550   5.270   6.206 -0.0781 -0.2254 -0.0753
  321TF    F91323683   1.484   5.298   6.318  0.3029  0.3149 -0.3176
  321TF    F91423684   1.593   5.150   6.238  0.2408 -0.1687  0.0235
  321TF    F91523685   1.662   5.344   6.219  0.1542  0.1662  0.1857
  322TF     S9123686   1.567   6.577   2.073 -0.1679 -0.0267 -0.0194
  322TF     O9223687   1.600   6.698   2.002  0.2602 -0.4509  0.2625
  322TF     O9323688   1.447   6.507   2.033  0.0293 -0.2369 -0.4244
  322TF     C9Z23689   1.693   6.456   2.026 -0.1238 -0.0317  0.0445
  322TF     F9523690   1.817   6.511   2.039  0.2694  0.2389  0.0345
  322TF     F9623691   1.673   6.421   1.900  0.6162 -0.3221  0.6342
  322TF     F9723692   1.689   6.345   2.091 -0.3488 -0.2573  1.0597
  322TF     N9823693   1.587   6.593   2.223  0.2459 -0.5938  0.0309
  322TF     S9923694   1.514   6.709   2.288 -0.3815 -0.1382  0.2576
  322TF    O91023695   1.382   6.737   2.233  0.5612 -0.2981 -0.2154
  322TF    O91123696   1.595   6.828   2.310  0.0377 -0.0921 -0.1374
  322TF     C9Z23697   1.480   6.662   2.463 -1.0152 -0.0329 -0.2669
  322TF    F91323698   1.388   6.745   2.510  0.1020 -0.0677  0.4659
  322TF    F91423699   1.430   6.540   2.478 -0.1971 -0.1799  0.3813
  322TF    F91523700   1.585   6.669   2.546 -0.2433  0.2119  0.1983
  323TF     S9123701   4.138   2.750   3.084  0.1363  0.5896  0.1140
  323TF     O9223702   4.148   2.730   2.942  0.1968 -0.1858 -0.4298
  323TF     O9323703   4.257   2.789   3.162  0.1158  0.2696  0.0693
  323TF     C9Z23704   4.026   2.893   3.090  0.2816 -0.1845 -0.0822
  323TF     F9523705   3.899   2.866   3.047  0.2670 -0.4924  0.0670
  323TF     F9623706   4.066   2.998   3.014 -0.5771 -0.1924  0.1636
  323TF     F9723707   4.012   2.939   3.213 -0.7514 -0.1546 -0.3491
  323TF     N9823708   4.061   2.632   3.145 -0.1768 -0.6500 -0.8310
  323TF     S9923709   4.133   2.519   3.218 -0.0796  0.5674 -0.0292
  323TF    O91023710   4.212   2.567   3.327 -1.2021 -0.0558 -0.4497
  323TF    O91123711   4.202   2.426   3.132  0.7289 -0.4771  0.0435
  323TF     C9Z23712   3.999   2.431   3.312 -0.3802 -0.2940  0.5912
  323TF    F91323713   4.042   2.325   3.381 -0.4527  0.6123 -0.5626
  323TF    F91423714   3.933   2.509   3.402 -0.1913  0.2719  0.0155
  323TF    F91523715   3.907   2.377   3.230 -0.1700  0.2154 -0.4987
  324TF     S9123716   4.870   6.734   1.652 -0.2739  0.1299 -0.3594
  324TF     O9223717   4.984   6.649   1.631 -0.4775 -0.0246 -0.3452
  324TF     O9323718   4.874   6.834   1.758 -0.4882 -1.0462  0.2226
  324TF     C9Z23719   4.857   6.844   1.502  0.4198  0.3156 -0.2561
  324TF     F9523720   4.871   6.779   1.383 -0.1015 -0.0169 -0.8964
  324TF     F9623721   4.945   6.943   1.502  0.0152  0.0147  0.3482
  324TF     F9723722   4.731   6.902   1.489  0.3143 -0.6414 -0.1396
  324TF     N9823723   4.730   6.659   1.649 -0.2982  0.4698  0.0666
  324TF     S9923724   4.670   6.592   1.776 -0.3425 -0.1876  0.2695
  324TF    O91023725   4.754   6.606   1.897 -0.5789 -0.8559  0.0011
  324TF    O91123726   4.608   6.463   1.744 -0.6398  0.1072  0.2620
  324TF     C9Z23727   4.519   6.691   1.812 -0.5116  0.0278  0.7106
  324TF    F91323728   4.428   6.659   1.720  0.1425  0.1898  0.3902
  324TF    F91423729   4.461   6.641   1.922  0.4321  0.2015 -0.6148
  324TF    F91523730   4.517   6.823   1.827  0.3960 -0.1525  0.3187
  325TF     S9123731   1.484   1.252   2.876 -0.0481 -0.0717 -0.1251
  325TF     O9223732   1.532   1.183   2.991  0.2480 -0.1648  0.4110
  325TF     O9323733   1.524   1.187   2.754 -0.1783  0.8855 -0.0716
  325TF     C9Z23734   1.298   1.234   2.885 -0.2263 -0.3738  0.5343
  325TF     F9523735   1.234   1.287   2.784 -0.3282 -0.0137 -0.3185
  325TF     F9623736   1.254   1.290   2.997  0.1129  0.0142 -0.3985
  325TF     F9723737   1.261   1.109   2.895  0.0003 -0.2619  0.0737
  325TF     N9823738   1.513   1.406   2.878  0.1713  0.3643  0.0111
  325TF     S9923739   1.642   1.453   2.945 -0.0678 -0.3515  0.3459
  325TF    O91023740   1.758   1.379   2.895 -0.1418 -0.2237 -0.2391
  325TF    O91123741   1.628   1.452   3.086 -0.3967  0.0466 -0.6697
  325TF     C9Z23742   1.662   1.631   2.896  0.4836 -0.3154 -0.0030
  325TF    F91323743   1.562   1.707   2.938 -0.2266  0.1198  0.0328
  325TF    F91423744   1.775   1.687   2.940 -0.3476  0.1778 -0.0287
  325TF    F91523745   1.666   1.638   2.764  0.4808 -1.0539  0.3029
  326TF     S9123746   4.042   4.248   1.090 -0.2181  0.0860 -0.2543
  326TF     O9223747   3.976   4.369   1.064  0.3205 -0.0672 -0.2676
  326TF     O9323748   4.060   4.207   1.225 -0.0335 -0.2707 -0.1164
  326TF     C9Z23749   3.924   4.124   1.018 -0.2778  0.0985 -0.2487
  326TF     F9523750   3.803   4.133   1.067  0.3110  0.1044  0.5310
  326TF     F9623751   3.962   4.005   1.048  0.3962 -0.3625 -0.2360
  326TF     F9723752   3.908   4.136   0.887  0.4287  0.5120  0.1597
  326TF     N9823753   4.173   4.217   1.000  0.0675  0.1290  0.8084
  326TF     S9923754   4.215   4.316   0.886 -0.5064  0.0205 -0.4563
  326TF    O91023755   4.208   4.455   0.928 -0.5920 -0.2859  0.0777
  326TF    O91123756   4.159   4.287   0.758  0.3181 -0.4553 -0.1165
  326TF     C9Z23757   4.393   4.277   0.875 -0.3426  0.3717 -0.2686
  326TF    F91323758   4.441   4.292   0.752  0.5904 -0.0479  0.1389
  326TF    F91423759   4.467   4.353   0.954  0.0896  0.4818 -0.3417
  326TF    F91523760   4.418   4.153   0.912 -0.1680  0.1970 -0.4787
  327TF     S9123761   5.707   2.896   5.706  0.0104  0.0951  0.1981
  327TF     O9223762   5.780   2.983   5.615 -0.3629 -0.2107 -0.0440
  327TF     O9323763   5.666   2.766   5.657 -0.1294  0.2020 -0.0625
  327TF     C9Z23764   5.835   2.856   5.827 -0.2617 -0.4141 -0.1410
  327TF     F9523765   5.871   2.963   5.898 -0.3801 -0.6276 -0.2936
  327TF     F9623766   5.948   2.806   5.770  0.4811 -0.0095  0.5464
  327TF     F9723767   5.803   2.759   5.910 -0.7149  0.3200  0.2086
  327TF     N9823768   5.600   2.967   5.793 -0.3232  1.1356  0.1672
  327TF     S9923769   5.486   3.039   5.722  0.1937 -0.0571  0.0431
  327TF    O91023770   5.423   2.962   5.615 -0.4019  0.2733 -0.3677
  327TF    O91123771   5.527   3.175   5.692 -0.2285  0.1765  0.4177
  327TF     C9Z23772   5.351   3.054   5.852 -0.0288 -0.2834 -0.0556
  327TF    F91323773   5.385   3.156   5.935 -0.5334  0.1845  0.0048
  327TF    F91423774   5.234   3.076   5.799  0.7222  0.1689  0.1815
  327TF    F91523775   5.329   2.956   5.942 -0.2030 -0.6993 -0.0575
  328TF     S9123776   3.703   4.565   0.729 -0.4007 -0.4753  0.1165
  328TF     O9223777   3.639   4.486   0.825  0.4373 -0.3796  0.5227
  328TF     O9323778   3.712   4.706   0.757 -0.0395  0.3257 -0.6392
  328TF     C9Z23779   3.872   4.506   0.726  0.5680 -0.3010 -0.2705
  328TF     F9523780   3.920   4.534   0.603  0.7495  0.3289  0.6657
  328TF     F9623781   3.893   4.378   0.743 -0.3276  0.2034  0.4980
  328TF     F9723782   3.945   4.576   0.810 -0.7834  0.4417  0.4751
  328TF     N9823783   3.664   4.532   0.586  0.5715  0.3345 -0.1709
  328TF     S9923784   3.626   4.641   0.479 -0.0340 -0.0274  0.4345
  328TF    O91023785   3.729   4.708   0.399 -0.1321  0.5116  0.0179
  328TF    O91123786   3.512   4.715   0.527  0.4528  0.3272 -0.1402
  328TF     C9Z23787   3.535   4.536   0.347  0.3918 -0.2642  0.8104
  328TF    F91323788   3.628   4.455   0.286 -0.3494 -0.3062 -0.2652
  328TF    F91423789   3.459   4.450   0.407  0.2715 -0.1632  0.3686
  328TF    F91523790   3.466   4.583   0.247  0.4814  0.0965 -0.3608
  329TF     S9123791   0.853   1.292   0.859 -0.0792 -0.1587 -0.2587
  329TF     O9223792   0.946   1.394   0.900 -0.4057  0.0289  0.0948
  329TF     O9323793   0.744   1.261   0.944 -1.3732 -0.1028 -0.7453
  329TF     C9Z23794   0.784   1.341   0.695 -0.4786 -0.4440  0.6489
  329TF     F9523795   0.702   1.255   0.638 -0.4335  0.4765 -0.7018
  329TF     F9623796   0.875   1.363   0.599  0.7685 -0.0349  0.3247
  329TF     F9723797   0.710   1.451   0.705  0.2858  0.3139  0.4786
  329TF     N9823798   0.938   1.170   0.819  0.2188 -0.4710  0.4248
  329TF     S9923799   1.020   1.085   0.923  0.3265 -0.1042  0.0309
  329TF    O91023800   0.953   0.960   0.958  0.2089 -0.7366  0.2115
  329TF    O91123801   1.068   1.159   1.034  0.3438 -0.3271  0.0466
  329TF     C9Z23802   1.175   1.035   0.829 -0.2944  0.1922 -0.2004
  329TF    F91323803   1.273   1.124   0.832 -0.0101 -0.5529 -0.1576
  329TF    F91423804   1.224   0.920   0.871 -0.6057  0.0154  0.1259
  329TF    F91523805   1.152   1.022   0.701  0.1215  0.0174 -0.2334
  330TF     S9123806   6.322   2.088   0.367 -0.0402 -0.2250 -0.5577
  330TF     O9223807   6.252   2.193   0.432  0.6109  0.4556  0.0139
  330TF     O9323808   6.260   1.957   0.368 -0.4580  0.6640  0.5668
  330TF     C9Z23809   6.327   2.152   0.193  0.3337  0.3790 -0.2359
  330TF     F9523810   6.201   2.161   0.138  0.8885  0.0355 -0.0649
  330TF     F9623811   6.395   2.064   0.122 -0.4640 -0.3077 -0.1340
  330TF     F9723812   6.395   2.269   0.181  0.1278  0.1173  0.0474
  330TF     N9823813   6.473   2.085   0.399  0.0800 -0.1293  0.0445
  330TF     S9923814   6.556   1.955   0.419 -0.1376 -0.0720  0.3788
  330TF    O91023815   6.532   1.860   0.309  0.5802 -0.2240  0.1569
  330TF    O91123816   6.559   1.904   0.552 -0.3618  0.1220  0.0013
  330TF     C9Z23817   6.736   2.002   0.392  0.6122 -0.1400 -0.1751
  330TF    F91323818   6.773   2.095   0.485 -0.4332  0.0923  0.0792
  330TF    F91423819   6.812   1.897   0.401 -0.2285 -0.3990  0.0938
  330TF    F91523820   6.777   2.046   0.275  0.4002  0.2228 -0.4928
  331TF     S9123821   0.440   3.379   2.256  0.0693 -0.1538  0.2813
  331TF     O9223822   0.568   3.354   2.197 -0.2331 -0.3000 -0.0404
  331TF     O9323823   0.329   3.382   2.165  0.3592  0.4637 -0.1746
  331TF     C9Z23824   0.400   3.243   2.372  0.1992  0.7220  0.3428
  331TF     F9523825   0.399   3.131   2.308 -0.6231 -0.3368  0.0232
  331TF     F9623826   0.283   3.264   2.434  0.6956 -0.6325  0.5961
  331TF     F9723827   0.490   3.228   2.472  0.0677 -0.4968  0.4006
  331TF     N9823828   0.449   3.499   2.352  0.4437 -0.0693 -0.2890
  331TF     S9923829   0.386   3.640   2.317 -0.0378  0.1217 -0.2823
  331TF    O91023830   0.369   3.667   2.177 -0.1689 -0.7896 -0.8080
  331TF    O91123831   0.445   3.749   2.391  0.1261  0.4066  0.1719
  331TF     C9Z23832   0.214   3.634   2.392 -0.3404  1.0968 -0.5603
  331TF    F91323833   0.130   3.725   2.359  0.4804  0.1778  0.0955
  331TF    F91423834   0.153   3.518   2.362  0.2795 -0.0839  0.3938
  331TF    F91523835   0.215   3.630   2.519  0.3867 -0.2255 -0.9253
  332TF     S9123836   6.807   5.036   1.965  0.2015 -0.1461  0.0966
  332TF     O9223837   6.717   5.131   1.902  0.1540  0.2707 -0.0997
  332TF     O9323838   6.945   5.074   1.973 -0.0485 -0.2390  0.2137
  332TF     C9Z23839   6.751   5.017   2.144 -0.0735  0.3287 -0.1644
  332TF     F9523840   6.644   4.946   2.164 -0.1876 -0.3268  0.0225
  332TF     F9623841   6.723   5.135   2.201 -0.2818 -0.1257 -0.3614
  332TF     F9723842   6.848   4.957   2.210  0.0807 -0.0615  0.2837
  332TF     N9823843   6.799   4.895   1.907  0.8616  0.0505  0.1035
  332TF     S9923844   6.855   4.869   1.767  0.6105 -0.3817  0.2611
  332TF    O91023845   6.971   4.784   1.767 -0.0282  0.9306  0.5362
  332TF    O91123846   6.866   4.993   1.691  0.0767  0.3269 -0.3657
  332TF     C9Z23847   6.722   4.781   1.672  0.4664 -0.6467 -0.2987
  332TF    F91323848   6.676   4.682   1.744  0.3000  0.6605 -0.0783
  332TF    F91423849   6.620   4.860   1.659 -0.1730 -0.1256  0.4371
  332TF    F91523850   6.759   4.735   1.556  0.1978 -0.3229  0.5717
  333TF     S9123851   4.449   0.696   4.989  0.1712  0.3520 -0.0269
  333TF     O9223852   4.459   0.558   5.031 -0.4357 -0.1679 -0.2998
  333TF     O9323853   4.537   0.787   5.058  0.5171 -0.0507 -0.1033
  333TF     C9Z23854   4.505   0.698   4.815 -0.4474 -0.5074 -0.5945
  333TF     F9523855   4.433   0.611   4.743 -0.3885 -0.0606 -0.5166
  333TF     F9623856   4.630   0.658   4.810 -0.0167  0.3496  0.4246
  333TF     F9723857   4.496   0.818   4.762 -0.0087  0.3136  0.5561
  333TF     N9823858   4.304   0.746   4.969 -0.5079  0.1176  0.0806
  333TF     S9923859   4.190   0.709   5.066 -0.4850 -0.0570  0.2506
  333TF    O91023860   4.208   0.760   5.198 -0.0812  0.3470  0.2416
  333TF    O91123861   4.146   0.574   5.061 -0.2144 -0.4191 -0.0538
  333TF     C9Z23862   4.047   0.801   4.989  0.0023 -0.0974  0.0350
  333TF    F91323863   4.073   0.934   4.989  0.3645 -0.2263  0.0712
  333TF    F91423864   4.022   0.767   4.859 -0.1290 -0.9224  0.1706
  333TF    F91523865   3.928   0.797   5.046  0.3706 -0.1644 -0.4099
  334TF     S9123866   2.911   6.671   2.547 -0.1014 -0.1603  0.2701
  334TF     O9223867   3.031   6.690   2.619 -0.5231 -0.1034 -0.4133
  334TF     O9323868   2.809   6.604   2.622 -0.3761  0.0543 -0.6232
  334TF     C9Z23869   2.845   6.843   2.522 -0.3637  0.0794 -0.1216
  334TF     F9523870   2.754   6.847   2.426  0.0231  0.1484  0.1906
  334TF     F9623871   2.937   6.932   2.481 -0.2488  0.0762  0.0401
  334TF     F9723872   2.788   6.903   2.628 -0.3943 -0.3628  0.2459
  334TF     N9823873   2.945   6.611   2.411  0.0947  0.7840 -0.3271
  334TF     S9923874   2.999   6.464   2.392  0.0897  0.0000 -0.3742
  334TF    O91023875   2.976   6.383   2.510 -0.3704  0.2232 -0.0220
  334TF    O91123876   3.124   6.457   2.320 -0.1208 -0.1480  0.0955
  334TF     C9Z23877   2.874   6.389   2.271  0.0228  0.3486 -0.1789
  334TF    F91323878   2.904   6.427   2.148  0.0314  0.0046 -0.2778
  334TF    F91423879   2.881   6.260   2.271  0.2443 -0.4762  0.2524
  334TF    F91523880   2.749   6.430   2.291 -0.1196 -0.0412 -0.3492
  335TF     S9123881   0.963   2.824   2.057  0.1840  0.1014 -0.3250
  335TF     O9223882   0.977   2.828   1.914  0.0814  0.5035 -0.0347
  335TF     O9323883   0.905   2.937   2.123  0.1372  0.0938 -0.5171
  335TF     C9Z23884   0.855   2.676   2.083 -0.5714  0.4341 -0.0719
  335TF     F9523885   0.792   2.675   2.199  0.2929 -0.0017  0.3353
  335TF     F9623886   0.919   2.559   2.081  0.0873 -0.2376  0.1155
  335TF     F9723887   0.752   2.676   1.995 -0.0049 -0.1430  0.3676
  335TF     N9823888   1.092   2.784   2.129  0.0188 -0.6068 -0.0480
  335TF     S9923889   1.209   2.881   2.145  0.6115 -0.3250  0.3328
  335TF    O91023890   1.175   3.019   2.120 -0.0349 -0.0347  0.3380
  335TF    O91123891   1.327   2.832   2.077  0.0708  0.2080 -0.6313
  335TF     C9Z23892   1.242   2.868   2.327 -0.0936  0.8215  0.3644
  335TF    F91323893   1.286   2.745   2.352 -0.6518 -0.0691 -0.1361
  335TF    F91423894   1.332   2.954   2.365 -0.3652  0.5412  0.1932
  335TF    F91523895   1.129   2.890   2.398  0.0235  0.1651  0.0905
  336TF     S9123896   1.869   3.753   2.485  0.0657  0.0568 -0.5911
  336TF     O9223897   1.750   3.830   2.501  1.0143 -0.1461 -0.4805
  336TF     O9323898   1.867   3.642   2.384  0.1326  0.1639  0.2568
  336TF     C9Z23899   1.989   3.883   2.427  0.1788  0.3270 -0.6029
  336TF     F9523900   1.977   3.924   2.298 -0.5220  0.0847  0.5880
  336TF     F9623901   2.118   3.839   2.443  0.1148  0.2335  0.1641
  336TF     F9723902   1.986   3.993   2.496 -0.4763 -0.4765  0.3324
  336TF     N9823903   1.927   3.710   2.624 -0.4387  0.0764 -0.5914
  336TF     S9923904   1.898   3.568   2.683 -0.4577 -0.6319  0.2900
  336TF    O91023905   2.001   3.472   2.652  0.4537  0.5165 -0.1985
  336TF    O91123906   1.759   3.538   2.674  0.9007 -0.4243 -0.1388
  336TF     C9Z23907   1.923   3.590   2.871  0.2764  0.2136 -0.4233
  336TF    F91323908   2.047   3.580   2.902  0.4324 -0.6475 -0.5376
  336TF    F91423909   1.864   3.691   2.927  0.1195  0.0388 -0.0922
  336TF    F91523910   1.872   3.484   2.935  0.6131  0.2585  0.0305
  337TF     S9123911   2.763   6.770   3.748  0.3942 -0.5868 -0.2544
  337TF     O9223912   2.833   6.656   3.814  0.4708 -0.6945 -0.5100
  337TF     O9323913   2.834   6.896   3.738 -0.0657 -0.0427  0.2452
  337TF     C9Z23914   2.742   6.718   3.571 -0.1554  0.5421 -0.0182
  337TF     F9523915   2.698   6.596   3.559 -0.0289  0.1451 -0.0407
  337TF     F9623916   2.855   6.714   3.503 -0.2624  0.3744 -0.4204
  337TF     F9723917   2.659   6.791   3.498  0.3111  0.3099  0.0227
  337TF     N9823918   2.619   6.794   3.796  0.2803  0.6141 -0.2767
  337TF     S9923919   2.557   6.717   3.922 -0.1944  0.0580  0.1807
  337TF    O91023920   2.614   6.586   3.941 -0.1282 -0.5343  0.0904
  337TF    O91123921   2.415   6.739   3.932 -0.1320  0.0574  0.4446
  337TF     C9Z23922   2.632   6.801   4.072  0.6243 -0.4695 -0.3546
  337TF    F91323923   2.761   6.836   4.056  0.2076  0.1362 -0.0781
  337TF    F91423924   2.568   6.914   4.100  0.4345  0.3148  0.2385
  337TF    F91523925   2.630   6.724   4.180  0.3183  0.2883  0.2925
  338TF     S9123926   6.353   6.136   3.643  0.1626 -0.1791  0.0226
  338TF     O9223927   6.315   6.015   3.573 -0.0723 -0.1015 -0.0237
  338TF     O9323928   6.308   6.163   3.779  0.1711 -0.5703  0.2733
  338TF     C9Z23929   6.534   6.110   3.672  0.7742 -0.2345 -0.1124
  338TF     F9523930   6.573   6.211   3.748  0.0916 -0.5144 -0.8200
  338TF     F9623931   6.607   6.104   3.562 -0.4336 -0.0125 -0.4451
  338TF     F9723932   6.568   6.002   3.742  0.3642 -0.6976  0.0354
  338TF     N9823933   6.343   6.270   3.555 -0.2636 -0.3764 -0.1051
  338TF     S9923934   6.277   6.398   3.614  0.0537  0.0415  0.3271
  338TF    O91023935   6.364   6.461   3.708  0.1405  0.1325 -0.0182
  338TF    O91123936   6.137   6.389   3.648 -0.2288 -0.3660 -0.1368
  338TF     C9Z23937   6.290   6.516   3.470 -0.0296  0.4870 -0.0363
  338TF    F91323938   6.418   6.535   3.433  0.0699 -0.1897  0.2140
  338TF    F91423939   6.226   6.468   3.364  0.0893  0.3315 -0.5358
  338TF    F91523940   6.230   6.634   3.492  0.4262 -0.3045  0.0729
  339TF     S9123941   2.782   1.031   0.424  0.6651  0.0702 -0.0624
  339TF     O9223942   2.788   0.988   0.292 -0.2968  0.7044 -0.0529
  339TF     O9323943   2.682   0.976   0.513  0.3875  0.4433 -0.1508
  339TF     C9Z23944   2.950   0.992   0.504 -0.2672  0.6591 -0.2151
  339TF     F9523945   2.972   0.864   0.495  1.0547 -0.3756  1.1036
  339TF     F9623946   2.952   1.013   0.633  0.0900  0.6419  0.0673
  339TF     F9723947   3.055   1.059   0.456  0.0131 -0.4103 -0.2346
  339TF     N9823948   2.783   1.184   0.425  0.4630  0.3168  0.3561
  339TF     S9923949   2.700   1.281   0.336  0.0443  0.2233 -0.1064
  339TF    O91023950   2.635   1.387   0.409 -0.5500  0.1230  0.1253
  339TF    O91123951   2.616   1.214   0.234 -0.1925  0.3361 -0.5676
  339TF     C9Z23952   2.825   1.369   0.235  0.0701 -0.1574  0.4531
  339TF    F91323953   2.904   1.283   0.171  0.2555  0.5916  0.3043
  339TF    F91423954   2.758   1.438   0.143 -0.1364 -0.2801  0.3091
  339TF    F91523955   2.905   1.459   0.296 -0.1223  0.0428 -0.1736
  340TF     S9123956   4.585   0.933   3.855 -0.2561  0.0503 -0.6667
  340TF     O9223957   4.631   0.963   3.988  0.2190 -0.0873 -0.0552
  340TF     O9323958   4.647   1.000   3.748 -0.1538  0.0304  0.0958
  340TF     C9Z23959   4.636   0.762   3.830 -0.1911  0.6740  0.4182
  340TF     F9523960   4.765   0.752   3.818  0.1115  0.7635  0.0509
  340TF     F9623961   4.580   0.707   3.718 -0.1434 -0.2658  0.0837
  340TF     F9723962   4.601   0.682   3.930  0.3107 -0.6245  0.0098
  340TF     N9823963   4.432   0.909   3.852  0.0783  0.6603 -0.3570
  340TF     S9923964   4.337   0.919   3.978  0.0619 -0.0940 -0.0582
  340TF    O91023965   4.326   1.047   4.050 -0.3814  0.7600  0.3545
  340TF    O91123966   4.357   0.810   4.070  0.2837  0.7892 -0.2083
  340TF     C9Z23967   4.168   0.898   3.907  0.3580 -0.1576  0.0822
  340TF    F91323968   4.149   0.780   3.846  0.0842  0.0642 -0.3923
  340TF    F91423969   4.081   0.915   4.004  0.2861 -0.2534 -0.1390
  340TF    F91523970   4.147   0.992   3.817  0.4642 -0.3341  0.4893
  341TF     S9123971   0.278   1.752   3.847 -0.0271  0.3975 -0.1385
  341TF     O9223972   0.325   1.623   3.887  0.1572  0.1128  0.4577
  341TF     O9323973   0.163   1.812   3.912  0.4095 -0.0587 -0.3855
  341TF     C9Z23974   0.423   1.864   3.892  0.6071  0.2766 -0.7493
  341TF     F9523975   0.538   1.824   3.859 -0.7270 -0.6144  0.1581
  341TF     F9623976   0.427   1.873   4.027 -0.0369  0.7077  0.0742
  341TF     F9723977   0.419   1.987   3.843  0.3346 -0.0896  0.0950
  341TF     N9823978   0.284   1.764   3.695 -0.1993 -0.5380  0.2066
  341TF     S9923979   0.160   1.764   3.598 -0.2218  0.3272 -0.0437
  341TF    O91023980   0.049   1.851   3.624 -0.1871  0.7384  0.3394
  341TF    O91123981   0.133   1.622   3.580  0.1677  0.1923  0.3733
  341TF     C9Z23982   0.222   1.828   3.436 -0.1465 -0.2312 -0.3253
  341TF    F91323983   0.265   1.952   3.461 -0.1590 -0.6998  0.3289
  341TF    F91423984   0.330   1.766   3.396 -0.4468 -0.1406 -0.4241
  341TF    F91523985   0.134   1.841   3.342 -0.2738 -0.0694  0.5025
  342TF     S9123986   4.789   3.454   1.072 -0.1620 -0.1730 -0.1190
  342TF     O9223987   4.682   3.494   0.982  0.2847  0.5663 -0.1101
  342TF     O9323988   4.841   3.551   1.165  0.1300  0.8838 -0.2812
  342TF     C9Z23989   4.721   3.315   1.183  0.1043 -0.0244 -0.1397
  342TF     F9523990   4.667   3.217   1.114 -0.2364 -0.2542  0.2470
  342TF     F9623991   4.632   3.355   1.272 -0.5480 -0.3933  0.5745
  342TF     F9723992   4.821   3.257   1.260 -0.2473  0.1635  0.0235
  342TF     N9823993   4.901   3.373   1.006  0.4594  0.0613  0.3788
  342TF     S9923994   4.960   3.429   0.874  0.5449 -0.0677 -0.3950
  342TF    O91023995   4.920   3.567   0.846  0.4680  0.0966 -0.0863
  342TF    O91123996   4.938   3.330   0.769  0.2988  0.1671  0.6006
  342TF     C9Z23997   5.140   3.439   0.912 -0.3786  0.2838  0.3352
  342TF    F91323998   5.189   3.315   0.940  0.0457 -0.3500 -0.3318
  342TF    F91423999   5.198   3.482   0.805  0.3143 -0.5910  0.9718
  342TF    F91524000   5.190   3.520   1.008 -0.2206 -0.0420  0.7608
  343TF     S9124001   1.700   3.375   4.744  0.2996 -0.1944  0.6685
  343TF     O9224002   1.657   3.410   4.612 -0.1730 -0.2186 -0.8662
  343TF     O9324003   1.626   3.275   4.810 -0.2018  0.2411  0.1978
  343TF     C9Z24004   1.866   3.301   4.732 -0.4888 -0.4237  0.1008
  343TF     F9524005   1.962   3.371   4.671 -0.0631 -0.1997  0.1411
  343TF     F9624006   1.857   3.187   4.668 -0.0935  0.0186  0.4456
  343TF     F9724007   1.915   3.278   4.852  0.5095  0.6510 -0.1127
  343TF     N9824008   1.729   3.493   4.838 -0.5944  0.1997 -0.0672
  343TF     S9924009   1.626   3.593   4.881  0.5887 -0.1765 -0.2544
  343TF    O91024010   1.506   3.534   4.935 -0.2248 -0.0972  0.0554
  343TF    O91124011   1.612   3.700   4.788  0.9155  0.3234  0.0022
  343TF     C9Z24012   1.717   3.662   5.029 -0.7536  0.8311 -0.2752
  343TF    F91324013   1.735   3.561   5.119  0.1523 -0.3622  0.5687
  343TF    F91424014   1.833   3.713   4.993  0.1356 -0.1290  0.5168
  343TF    F91524015   1.645   3.757   5.088  0.4254 -0.0131 -0.5590
  344TF     S9124016   6.659   1.827   1.187  0.0832  0.2814 -0.0783
  344TF     O9224017   6.783   1.770   1.135 -0.9250 -0.1662  0.0937
  344TF     O9324018   6.552   1.854   1.103 -0.2448  0.0135  0.0551
  344TF     C9Z24019   6.605   1.696   1.315 -0.3993 -0.2319 -0.1370
  344TF     F9524020   6.495   1.738   1.373  0.0027  0.3975 -0.3625
  344TF     F9624021   6.688   1.683   1.420 -0.3592 -0.5648  0.0674
  344TF     F9724022   6.587   1.574   1.268 -0.3204 -0.0084  0.1002
  344TF     N9824023   6.696   1.951   1.276  0.5848  0.1897 -0.4857
  344TF     S9924024   6.723   2.087   1.211  0.2012  0.0079 -0.2614
  344TF    O91024025   6.591   2.159   1.199 -0.1600 -0.1802  0.0087
  344TF    O91124026   6.808   2.079   1.094  0.4248 -0.0262 -0.2072
  344TF     C9Z24027   6.812   2.180   1.342  0.4164 -0.7310 -0.1200
  344TF    F91324028   6.927   2.132   1.361  0.8726 -0.1032 -0.6634
  344TF    F91424029   6.838   2.296   1.291 -0.1271  0.0307  0.1587
  344TF    F91524030   6.759   2.203   1.458  0.1790  0.2374 -0.4930
  345TF     S9124031   6.053   3.366   2.124 -0.0747  0.2860  0.5203
  345TF     O9224032   6.094   3.288   2.241  0.3424 -0.1663 -0.0512
  345TF     O9324033   5.963   3.299   2.027  0.5972 -0.0690  0.4103
  345TF     C9Z24034   5.957   3.505   2.188 -0.3694 -0.1438  0.0200
  345TF     F9524035   5.847   3.473   2.259 -0.7615 -0.0712  0.3358
  345TF     F9624036   5.906   3.569   2.085  0.1290 -0.0036 -0.4778
  345TF     F9724037   6.021   3.588   2.270  0.4008  0.3078  0.1100
  345TF     N9824038   6.170   3.433   2.045 -0.3668  0.0740 -0.0482
  345TF     S9924039   6.320   3.413   2.058  0.1827 -0.3708  0.0052
  345TF    O91024040   6.364   3.285   2.002  0.1042 -0.4302 -0.3804
  345TF    O91124041   6.376   3.454   2.184 -0.4516 -0.5199 -0.3288
  345TF     C9Z24042   6.382   3.534   1.931  0.0145 -0.4116 -0.0269
  345TF    F91324043   6.342   3.507   1.807 -0.4086 -0.2648 -0.2863
  345TF    F91424044   6.333   3.648   1.961  0.2319 -0.3111  0.3583
  345TF    F91524045   6.510   3.557   1.922 -0.5257  0.3453 -0.0309
  346TF     S9124046   0.244   5.185   5.836 -0.2458  0.0789 -0.1466
  346TF     O9224047   0.169   5.076   5.776 -0.2283  0.0580  0.1161
  346TF     O9324048   0.318   5.273   5.749 -0.0522  0.0748 -0.1469
  346TF     C9Z24049   0.118   5.285   5.932  1.0253  0.0190  0.4303
  346TF     F9524050   0.023   5.309   5.839  0.4806  0.3733  0.3502
  346TF     F9624051   0.163   5.400   5.972  0.4102 -0.6251 -0.2972
  346TF     F9724052   0.056   5.236   6.039 -0.2759  0.1117 -0.0811
  346TF     N9824053   0.344   5.148   5.951  0.2672  0.0619  0.2060
  346TF     S9924054   0.422   5.016   5.939  0.1584  0.1015 -0.2232
  346TF    O91024055   0.471   5.002   5.804  0.4563  0.0971 -0.3449
  346TF    O91124056   0.379   4.902   6.013  0.3390  0.4852  0.2499
  346TF     C9Z24057   0.580   5.064   6.028 -0.5336 -0.5216  1.0882
  346TF    F91324058   0.671   4.969   5.998  0.2260 -0.0727  0.5101
  346TF    F91424059   0.630   5.180   5.976  0.4460 -0.2112 -0.2349
  346TF    F91524060   0.579   5.067   6.161 -0.1105 -0.2887  0.4473
  347TF     S9124061   2.751   1.292   5.318  0.0186  0.0867  0.0734
  347TF     O9224062   2.886   1.323   5.283 -0.1870 -0.6580 -0.2037
  347TF     O9324063   2.658   1.401   5.350  0.5265 -0.0494  0.0609
  347TF     C9Z24064   2.678   1.216   5.168 -0.3713  0.0808  0.4118
  347TF     F9524065   2.758   1.117   5.119  0.1886 -0.1099  0.2772
  347TF     F9624066   2.654   1.313   5.068  0.2292  0.5574 -0.1254
  347TF     F9724067   2.559   1.165   5.195  0.1071 -0.3018 -0.2206
  347TF     N9824068   2.734   1.176   5.420  0.1699  0.1213 -0.1165
  347TF     S9924069   2.841   1.066   5.456 -0.0486 -0.2561 -0.2961
  347TF    O91024070   2.909   1.082   5.584 -0.0711 -0.3902  0.2917
  347TF    O91124071   2.925   1.024   5.347 -0.9802 -0.2255  0.3550
  347TF     C9Z24072   2.730   0.910   5.482  0.5571  0.7547 -0.3835
  347TF    F91324073   2.681   0.854   5.370 -0.6998 -0.2100  0.4103
  347TF    F91424074   2.795   0.805   5.541  0.1969 -0.3720  0.5854
  347TF    F91524075   2.621   0.929   5.542  0.5688 -0.5698 -0.1273
  348TF     S9124076   2.345   5.062   6.559  0.0141 -0.1657  0.1508
  348TF     O9224077   2.427   4.946   6.546  0.2213 -0.2357 -0.2563
  348TF     O9324078   2.408   5.192   6.560 -0.4967  0.1903 -0.2060
  348TF     C9Z24079   2.242   5.062   6.404  0.2068 -0.2925 -0.4613
  348TF     F9524080   2.160   5.168   6.396  0.4098  0.0170  0.0808
  348TF     F9624081   2.164   4.949   6.390 -0.0861 -0.3205 -0.1983
  348TF     F9724082   2.329   5.064   6.304 -0.5159 -0.0904 -0.8461
  348TF     N9824083   2.234   5.050   6.666  0.5108 -0.3804 -0.5043
  348TF     S9924084   2.265   5.050   6.821  0.0846 -0.1339 -0.0232
  348TF    O91024085   2.164   5.124   6.893  0.1134 -0.7368 -0.6888
  348TF    O91124086   2.403   5.065   6.857  0.2496 -0.1459 -0.3925
  348TF     C9Z24087   2.236   4.874   6.868 -0.0663  0.2990 -0.7044
  348TF    F91324088   2.123   4.829   6.809  0.2294  0.0902  0.1559
  348TF    F91424089   2.324   4.790   6.816  0.2869  0.2972 -0.9358
  348TF    F91524090   2.214   4.842   6.996  0.0394 -0.6686  0.2380
  349TF     S9124091   2.151   2.573   6.190 -0.1796  0.3681 -0.1057
  349TF     O9224092   2.279   2.507   6.189  0.4163  0.0580 -0.5963
  349TF     O9324093   2.146   2.695   6.112 -0.0327 -0.0209 -0.0946
  349TF     C9Z24094   2.033   2.453   6.115 -0.6113  0.8816 -0.2976
  349TF     F9524095   1.905   2.503   6.115 -0.2823  0.2204  0.2606
  349TF     F9624096   2.036   2.335   6.175  0.3366 -0.2189  0.0629
  349TF     F9724097   2.064   2.434   5.986  0.1002 -0.0373 -0.2977
  349TF     N9824098   2.102   2.592   6.338 -0.0177  0.5454 -0.2483
  349TF     S9924099   2.091   2.729   6.407  0.0850  0.0525  0.1642
  349TF    O91024100   2.024   2.827   6.323  0.2017 -0.2798 -0.1235
  349TF    O91124101   2.225   2.754   6.459 -0.1103  0.5101 -0.5983
  349TF     C9Z24102   1.981   2.695   6.548 -0.3309  0.3082 -0.1772
  349TF    F91324103   1.868   2.644   6.518  0.0147 -0.2260 -0.0240
  349TF    F91424104   2.034   2.612   6.635 -0.0034  0.2426 -0.5449
  349TF    F91524105   1.950   2.802   6.618 -0.1871 -0.3755 -0.5437
  350TF     S9124106   1.791   5.746   1.155 -0.3202 -0.4183 -0.2270
  350TF     O9224107   1.882   5.855   1.116  0.2699  0.3894  0.6383
  350TF     O9324108   1.650   5.764   1.126  0.5138  0.3110 -0.3322
  350TF     C9Z24109   1.848   5.604   1.048 -0.6283 -0.7925  0.0097
  350TF     F9524110   1.979   5.579   1.057  0.4633  0.2351  0.3701
  350TF     F9624111   1.816   5.616   0.920  0.2537  0.3021 -0.3665
  350TF     F9724112   1.789   5.489   1.083 -0.4347 -0.4786  0.0314
  350TF     N9824113   1.823   5.683   1.297  0.2190 -0.4416 -0.5767
  350TF     S9924114   1.707   5.643   1.388 -0.2359 -0.2919  0.3366
  350TF    O91024115   1.629   5.527   1.344  0.2109  0.2613 -0.0845
  350TF    O91124116   1.622   5.749   1.431  0.3534 -0.4452  0.5433
  350TF     C9Z24117   1.787   5.587   1.541  0.1118  0.8127 -0.4412
  350TF    F91324118   1.687   5.550   1.620 -0.3347 -0.1832  0.3554
  350TF    F91424119   1.862   5.478   1.528 -0.0206  0.2587  0.2966
  350TF    F91524120   1.861   5.670   1.608  0.0649 -0.1256 -0.7377
  351TF     S9124121   5.456   2.551   4.721 -0.1892 -0.1966 -0.1697
  351TF     O9224122   5.570   2.601   4.794  0.0120 -0.2368  0.2776
  351TF     O9324123   5.416   2.634   4.613  0.5031 -0.3132  0.2785
  351TF     C9Z24124   5.513   2.390   4.642  0.5996  0.0589 -0.8501
  351TF     F9524125   5.415   2.321   4.586  0.4079 -0.4056 -0.7658
  351TF     F9624126   5.584   2.307   4.721  0.1905  0.1075  0.0541
  351TF     F9724127   5.600   2.414   4.550  0.0602 -0.5343 -0.0598
  351TF     N9824128   5.336   2.497   4.803 -0.5577 -0.1375  0.2503
  351TF     S9924129   5.271   2.587   4.913  0.3175  0.5747  0.5484
  351TF    O91024130   5.134   2.560   4.908  0.0043  0.2071  0.3554
  351TF    O91124131   5.313   2.727   4.916  0.0044 -0.4962 -0.2731
  351TF     C9Z24132   5.323   2.505   5.068  0.0262  0.6743  0.1204
  351TF    F91324133   5.307   2.374   5.066  0.0884  0.4355 -0.6915
  351TF    F91424134   5.445   2.532   5.101  0.0716 -0.0049  0.8225
  351TF    F91524135   5.241   2.560   5.161 -0.3113  0.2478  0.0714
  352TF     S9124136   4.062   5.685   1.857  0.3391  0.0210  0.0051
  352TF     O9224137   4.181   5.725   1.784  0.5246 -0.6833  0.5201
  352TF     O9324138   4.076   5.595   1.965  0.2279 -0.7243  0.0191
  352TF     C9Z24139   4.014   5.845   1.934 -0.4372 -0.7009 -0.3406
  352TF     F9524140   4.042   5.956   1.860  0.6247  0.1555  0.3263
  352TF     F9624141   4.082   5.865   2.046  0.1614 -0.3485 -0.0243
  352TF     F9724142   3.888   5.859   1.967  0.0224 -0.2308 -0.0716
  352TF     N9824143   3.944   5.653   1.763  0.1868  0.1381  0.1515
  352TF     S9924144   3.957   5.567   1.630 -0.5742  0.0957 -0.3010
  352TF    O91024145   4.036   5.448   1.655  0.0790  0.3220  0.2253
  352TF    O91124146   3.988   5.653   1.515  0.3176 -0.4148 -0.0239
  352TF     C9Z24147   3.785   5.503   1.600  0.1310 -0.7492 -0.4916
  352TF    F91324148   3.787   5.421   1.500  0.4488  0.1713 -0.5135
  352TF    F91424149   3.737   5.428   1.701  0.2450 -0.2181 -0.1971
  352TF    F91524150   3.704   5.599   1.570 -0.4746 -0.2108 -0.3504
  353TF     S9124151   2.392   0.396   1.229 -0.5271 -0.0649  0.1085
  353TF     O9224152   2.447   0.350   1.102  0.3118 -0.2613  0.8386
  353TF     O9324153   2.257   0.355   1.264 -0.3072 -0.9498 -0.0590
  353TF     C9Z24154   2.505   0.320   1.352  0.0893  0.7310  0.1024
  353TF     F9524155   2.636   0.349   1.326  0.2647 -0.2994 -0.4189
  353TF     F9624156   2.498   0.189   1.346 -0.2496  0.3354 -0.2542
  353TF     F9724157   2.484   0.357   1.479 -0.0152 -0.1043  0.4074
  353TF     N9824158   2.407   0.551   1.242  0.1257  0.0919 -0.2475
  353TF     S9924159   2.329   0.620   1.353 -0.2543  0.1893 -0.1840
  353TF    O91024160   2.392   0.610   1.482  0.1756 -0.0442 -0.1190
  353TF    O91124161   2.184   0.610   1.341  0.2169  0.6065 -0.1239
  353TF     C9Z24162   2.366   0.797   1.314  0.1047 -0.1447 -0.5957
  353TF    F91324163   2.305   0.874   1.412  0.3767  0.6932 -0.0930
  353TF    F91424164   2.495   0.830   1.323  0.6232 -0.1782 -0.2503
  353TF    F91524165   2.310   0.829   1.198  0.0600 -1.1307  0.2542
  354TF     S9124166   2.926   3.917   0.470 -0.0323  0.0225 -0.1269
  354TF     O9224167   2.868   3.948   0.601  0.1820  0.1163  0.2033
  354TF     O9324168   2.945   3.777   0.437  0.2256 -0.6974  0.5081
  354TF     C9Z24169   2.805   3.968   0.346 -0.6639 -0.7942 -0.2904
  354TF     F9524170   2.792   4.101   0.348  0.2576 -0.2593 -0.1516
  354TF     F9624171   2.687   3.915   0.381  0.2629 -0.2353  0.2958
  354TF     F9724172   2.835   3.941   0.219  0.1033 -0.0765 -0.6011
  354TF     N9824173   3.043   4.011   0.431 -0.0851  0.3594  0.4821
  354TF     S9924174   3.178   4.008   0.503 -0.3045  0.0608 -0.2384
  354TF    O91024175   3.285   4.015   0.409  0.2191 -0.3317  0.1704
  354TF    O91124176   3.185   3.919   0.617  0.0077 -0.1832 -0.0486
  354TF     C9Z24177   3.194   4.182   0.564 -0.0774 -0.2348 -1.0767
  354TF    F91324178   3.315   4.216   0.607 -0.0355  0.1248  1.0387
  354TF    F91424179   3.156   4.271   0.474 -0.0765  0.1509 -0.6026
  354TF    F91524180   3.111   4.207   0.663 -0.4572 -0.2855 -0.1672
  355TF     S9124181   3.481   2.734   3.231  0.1248  0.3056 -0.2734
  355TF     O9224182   3.490   2.824   3.119 -0.1659  0.1087 -0.2226
  355TF     O9324183   3.408   2.609   3.215  0.4614 -0.5622 -0.0603
  355TF     C9Z24184   3.652   2.678   3.261 -0.0375 -0.7427  0.7904
  355TF     F9524185   3.657   2.606   3.371 -0.5138  0.6940  0.0689
  355TF     F9624186   3.747   2.776   3.260  0.2652  0.3579 -0.1271
  355TF     F9724187   3.692   2.602   3.166  0.3478 -0.5975 -0.2356
  355TF     N9824188   3.436   2.814   3.361 -0.1126 -0.2770 -0.2613
  355TF     S9924189   3.287   2.796   3.410 -0.4224 -0.2376 -0.4549
  355TF    O91024190   3.264   2.671   3.478 -0.4977  0.1428 -0.2083
  355TF    O91124191   3.194   2.848   3.310  0.7913 -0.1470  0.0919
  355TF     C9Z24192   3.287   2.920   3.542  0.4455 -0.6153  0.1926
  355TF    F91324193   3.380   2.891   3.634 -0.2773 -0.4129  0.2169
  355TF    F91424194   3.317   3.045   3.499  0.5051 -0.4316  0.2539
  355TF    F91524195   3.174   2.933   3.618 -0.4608  0.1376  0.4648
  356TF     S9124196   6.817   3.724   5.945  0.2004  0.4880  0.5515
  356TF     O9224197   6.887   3.771   6.063  0.3743  0.4680 -0.2397
  356TF     O9324198   6.846   3.790   5.820  0.1669  0.0803 -0.0860
  356TF     C9Z24199   6.879   3.547   5.926  0.1767 -0.1571  0.7257
  356TF     F9524200   7.010   3.540   5.905 -0.1675 -0.2952 -0.2908
  356TF     F9624201   6.837   3.488   5.817 -0.3005 -0.5528 -0.1331
  356TF     F9724202   6.855   3.461   6.026  0.1081 -0.2500 -0.2192
  356TF     N9824203   6.663   3.702   5.979 -0.5785  0.0675  0.4738
  356TF     S9924204   6.552   3.747   5.883 -0.0840  0.0557  0.2287
  356TF    O91024205   6.563   3.690   5.754 -0.7789 -0.3314 -0.0282
  356TF    O91124206   6.510   3.885   5.892 -0.5705  0.0998  0.1010
  356TF     C9Z24207   6.425   3.641   5.957 -0.0833 -0.6618 -0.0454
  356TF    F91324208   6.453   3.512   5.956  0.0498 -0.3529  0.0361
  356TF    F91424209   6.419   3.663   6.086 -0.2311 -0.0202  0.0117
  356TF    F91524210   6.299   3.653   5.923 -0.1617  0.4653  0.7985
  357TF     S9124211   2.778   1.766   5.120 -0.0003  0.2880  0.0727
  357TF     O9224212   2.783   1.684   5.237  0.8383 -0.6008 -0.0623
  357TF     O9324213   2.887   1.757   5.023  0.1602 -0.7578 -0.0634
  357TF     C9Z24214   2.632   1.717   5.032 -0.0737 -0.0123  0.8708
  357TF     F9524215   2.522   1.721   5.100  0.5453 -0.0489  0.1218
  357TF     F9624216   2.637   1.599   4.984 -0.0601 -0.0181  0.3610
  357TF     F9724217   2.610   1.803   4.934 -0.1573  0.0386  0.3526
  357TF     N9824218   2.755   1.909   5.156 -0.3631  0.3536 -0.3134
  357TF     S9924219   2.856   1.988   5.236  0.0782 -0.3467  0.5545
  357TF    O91024220   2.983   1.921   5.261  0.0906  0.8280 -0.0793
  357TF    O91124221   2.792   2.068   5.339  0.7454  0.3092 -0.3391
  357TF     C9Z24222   2.910   2.128   5.111 -0.1067  0.6865  0.1137
  357TF    F91324223   2.991   2.217   5.165 -0.1084  0.7041  1.1170
  357TF    F91424224   2.959   2.078   5.004  0.1195  0.5737  0.6313
  357TF    F91524225   2.794   2.191   5.069 -0.0692  0.2486 -0.1148
  358TF     S9124226   3.615   3.388   0.463  0.3284  0.2046  0.1195
  358TF     O9224227   3.630   3.526   0.428 -0.0610 -0.3031  0.1763
  358TF     O9324228   3.668   3.276   0.390 -0.0059  0.0636  0.2399
  358TF     C9Z24229   3.705   3.384   0.625 -0.0353 -0.5540  1.1039
  358TF     F9524230   3.644   3.436   0.728 -0.4292  0.3422 -0.0625
  358TF     F9624231   3.823   3.440   0.615  0.9036  0.1237 -0.3733
  358TF     F9724232   3.734   3.257   0.654 -0.1315  0.1266  0.3492
  358TF     N9824233   3.468   3.359   0.496 -0.0941  0.1322 -0.3925
  358TF     S9924234   3.343   3.424   0.429 -0.1862  0.0958  0.0502
  358TF    O91024235   3.234   3.331   0.417 -0.1468  0.6590  0.1433
  358TF    O91124236   3.371   3.514   0.323  0.6573  0.1894  0.8363
  358TF     C9Z24237   3.276   3.526   0.565  0.3236 -1.0149  0.0049
  358TF    F91324238   3.273   3.449   0.672  0.2760  0.3691 -0.4793
  358TF    F91424239   3.357   3.629   0.589  0.1302  0.5809 -0.4284
  358TF    F91524240   3.162   3.584   0.540  0.5617 -0.2053 -0.0309
  359TF     S9124241   4.418   4.743   2.200  0.1432  0.1980  0.1357
  359TF     O9224242   4.415   4.603   2.243 -0.6326  0.2555 -0.2903
  359TF     O9324243   4.353   4.777   2.079  0.0978 -0.0435 -0.1019
  359TF     C9Z24244   4.308   4.828   2.330 -0.7079 -0.4167 -0.2595
  359TF     F9524245   4.360   4.823   2.454  0.2033  0.8989 -0.4483
  359TF     F9624246   4.187   4.776   2.336  0.3850 -0.0583 -0.7597
  359TF     F9724247   4.279   4.949   2.292  0.1001  0.2947  1.0646
  359TF     N9824248   4.547   4.828   2.214 -0.1127 -0.3007 -0.0019
  359TF     S9924249   4.666   4.805   2.120  0.2141  0.1904  0.3105
  359TF    O91024250   4.656   4.685   2.040 -0.9178 -0.2558  0.7207
  359TF    O91124251   4.789   4.822   2.196  0.5566  0.4369 -0.0555
  359TF     C9Z24252   4.672   4.952   2.003  0.1968  0.0388  0.7858
  359TF    F91324253   4.761   5.049   2.028 -0.0408 -0.0190  0.2123
  359TF    F91424254   4.693   4.913   1.875  0.1196 -0.2669 -0.7002
  359TF    F91524255   4.551   5.005   2.009  0.3771 -0.9096 -0.2944
  360TF     S9124256   2.632   0.961   2.705 -0.2836 -0.1479 -0.4298
  360TF     O9224257   2.635   1.052   2.594  0.0457 -0.0536  0.3787
  360TF     O9324258   2.515   0.962   2.791 -0.6881 -0.7433  0.6723
  360TF     C9Z24259   2.631   0.781   2.635  0.1228 -0.3207 -0.5422
  360TF     F9524260   2.644   0.697   2.737 -0.2822  0.0891 -0.3633
  360TF     F9624261   2.732   0.756   2.556 -0.0653  0.2786  0.0949
  360TF     F9724262   2.518   0.747   2.570 -0.3901  0.0848 -0.4958
  360TF     N9824263   2.764   0.955   2.779  0.4495 -0.5874  0.0801
  360TF     S9924264   2.789   1.046   2.899 -0.4494  0.2398  0.0238
  360TF    O91024265   2.782   0.982   3.027 -0.3944 -0.2933  0.4581
  360TF    O91124266   2.722   1.168   2.888 -0.4350  0.2335 -0.9182
  360TF     C9Z24267   2.969   1.094   2.878 -0.1317 -0.0172 -0.9899
  360TF    F91324268   3.000   1.160   2.770  0.4276 -0.4150  0.3972
  360TF    F91424269   3.019   1.153   2.982 -0.1437 -0.3052  0.0537
  360TF    F91524270   3.044   0.986   2.865 -0.3163  0.0250 -0.0528
  361TF     S9124271   1.482   3.864   6.506 -0.2772  0.2384  0.1747
  361TF     O9224272   1.457   3.747   6.592 -0.0052 -0.1462  0.6177
  361TF     O9324273   1.410   3.985   6.539 -0.1949 -0.3658  0.2581
  361TF     C9Z24274   1.659   3.914   6.537  0.5313  0.0649 -0.5843
  361TF     F9524275   1.745   3.812   6.511 -0.6621 -0.2544 -0.3663
  361TF     F9624276   1.688   3.952   6.658  0.2427 -0.1934 -0.0426
  361TF     F9724277   1.697   4.012   6.458  0.1551  1.0315 -0.1525
  361TF     N9824278   1.471   3.836   6.357  0.0779  0.2349 -0.0106
  361TF     S9924279   1.398   3.711   6.300  0.0617  0.1787  0.0780
  361TF    O91024280   1.424   3.582   6.359  0.0618  0.0185  0.0455
  361TF    O91124281   1.405   3.711   6.157  0.1544 -0.1109 -0.8092
  361TF     C9Z24282   1.225   3.754   6.330  0.1000  0.0259 -0.2967
  361TF    F91324283   1.191   3.876   6.288 -0.2217 -0.7032  0.3636
  361TF    F91424284   1.140   3.675   6.259 -0.0586  0.3495 -0.0783
  361TF    F91524285   1.171   3.752   6.450 -0.3467 -0.4338  0.5924
  362TF     S9124286   5.185   2.732   6.402 -0.1784 -0.2885 -0.2588
  362TF     O9224287   5.325   2.718   6.443 -0.2143  0.0489  0.1665
  362TF     O9324288   5.085   2.738   6.505 -0.4033 -0.3697 -0.3690
  362TF     C9Z24289   5.186   2.913   6.340  0.0423  0.1263 -0.3436
  362TF     F9524290   5.221   3.006   6.430 -0.3556 -0.7048 -0.6474
  362TF     F9624291   5.062   2.946   6.299  0.0294  0.0298  0.4182
  362TF     F9724292   5.267   2.934   6.233 -0.2121 -0.4625 -0.4854
  362TF     N9824293   5.141   2.649   6.280 -0.5602 -0.2198 -0.3530
  362TF     S9924294   5.012   2.562   6.275  0.3219  0.0211 -0.2365
  362TF    O91024295   4.886   2.613   6.320 -0.0390  0.0689 -0.2633
  362TF    O91124296   5.049   2.429   6.312 -0.2134 -0.6259 -0.0119
  362TF     C9Z24297   4.990   2.552   6.093 -0.0356 -0.5945 -0.2937
  362TF    F91324298   5.083   2.476   6.036  0.2820 -0.3180 -0.3936
  362TF    F91424299   4.875   2.500   6.055  0.6898 -0.1627 -0.5072
  362TF    F91524300   4.998   2.670   6.029 -0.3236 -0.6730  0.3120
  363TF     S9124301   4.621   4.132   6.574  0.1277  0.0956  0.2447
  363TF     O9224302   4.634   4.275   6.589  0.0237 -0.2993 -0.5382
  363TF     O9324303   4.605   4.060   6.699  0.0530 -0.0898  0.5810
  363TF     C9Z24304   4.471   4.079   6.477  0.2969  0.1572 -0.6947
  363TF     F9524305   4.478   3.956   6.432 -0.1825  0.5437  0.5148
  363TF     F9624306   4.445   4.146   6.373 -0.0378 -0.7267  0.0964
  363TF     F9724307   4.367   4.089   6.558  0.7293 -0.3100 -0.0355
  363TF     N9824308   4.741   4.086   6.491  0.3869 -0.1022 -0.1995
  363TF     S9924309   4.848   3.981   6.536 -0.2338  0.0777 -0.7205
  363TF    O91024310   4.820   3.845   6.492  0.3404 -0.0710  0.2039
  363TF    O91124311   4.898   3.997   6.667 -0.2058 -0.5464  0.3370
  363TF     C9Z24312   4.994   4.033   6.430  0.2750  0.6413 -0.6449
  363TF    F91324313   5.032   4.153   6.446  0.4315  0.0293  0.0002
  363TF    F91424314   5.096   3.947   6.442 -0.2317  0.0545  0.4571
  363TF    F91524315   4.945   4.031   6.305 -0.1747  0.4967  0.3761
  364TF     S9124316   3.475   3.729   5.632  0.5743 -0.0086 -0.1881
  364TF     O9224317   3.598   3.799   5.630  0.2288 -0.2877 -0.0174
  364TF     O9324318   3.471   3.607   5.549 -0.4682  0.6005 -0.4939
  364TF     C9Z24319   3.475   3.668   5.800 -0.2370 -0.2100  0.0467
  364TF     F9524320   3.582   3.587   5.819  0.1680 -0.1351 -0.1124
  364TF     F9624321   3.366   3.596   5.826  0.1930  0.3555 -0.0528
  364TF     F9724322   3.483   3.762   5.897 -0.4130 -0.0094  0.7239
  364TF     N9824323   3.346   3.819   5.627 -0.3319 -0.0888 -0.1085
  364TF     S9924324   3.330   3.910   5.506 -0.3911 -0.2143  0.1829
  364TF    O91024325   3.232   3.850   5.419  0.4142  0.3962 -0.4347
  364TF    O91124326   3.449   3.962   5.443 -0.6765 -0.1920 -0.3942
  364TF     C9Z24327   3.238   4.060   5.571  0.0470 -0.0258  0.0394
  364TF    F91324328   3.108   4.043   5.592 -0.4784 -0.5973  0.3009
  364TF    F91424329   3.277   4.097   5.689 -0.2038 -0.2281 -0.0421
  364TF    F91524330   3.248   4.168   5.489 -0.5244 -0.3385 -0.8410
  365TF     S9124331   2.350   4.419   4.860 -0.5550 -0.0012  0.1339
  365TF     O9224332   2.282   4.546   4.866  0.2075  0.4574  0.6544
  365TF     O9324333   2.295   4.309   4.785 -0.4950  0.5779 -0.0560
  365TF     C9Z24334   2.514   4.450   4.769 -0.5459 -0.6782 -0.6843
  365TF     F9524335   2.590   4.344   4.758 -0.0090  0.2007 -0.0332
  365TF     F9624336   2.585   4.547   4.830 -0.2849 -0.1982  0.7656
  365TF     F9724337   2.492   4.494   4.647  0.7367 -0.2444 -0.3708
  365TF     N9824338   2.399   4.375   4.996 -0.2626  0.0745  0.8111
  365TF     S9924339   2.298   4.368   5.114 -0.1133  0.0252 -0.0795
  365TF    O91024340   2.314   4.241   5.182 -0.0852  1.0559 -0.3416
  365TF    O91124341   2.167   4.403   5.076  0.3926  0.1374 -0.7878
  365TF     C9Z24342   2.372   4.488   5.239 -0.0358 -1.2828 -0.1796
  365TF    F91324343   2.407   4.609   5.183 -0.6030  0.5419 -0.1810
  365TF    F91424344   2.289   4.515   5.338  0.0842  0.0607  0.0303
  365TF    F91524345   2.485   4.441   5.293  0.2270  0.1702  0.4016
  366TF     S9124346   1.800   5.772   6.075 -0.0766 -0.3514 -0.2474
  366TF     O9224347   1.879   5.653   6.095 -0.6841 -0.7507 -0.3603
  366TF     O9324348   1.738   5.794   5.943  0.1037 -0.6114 -0.1309
  366TF     C9Z24349   1.654   5.743   6.186  1.1043 -0.0523  0.1618
  366TF     F9524350   1.687   5.675   6.295  0.0906 -0.0883  0.1367
  366TF     F9624351   1.546   5.680   6.133 -0.0289  0.0619 -0.2106
  366TF     F9724352   1.600   5.861   6.226  0.2771  0.1434  0.2184
  366TF     N9824353   1.864   5.894   6.147 -0.8522  0.2695 -0.3566
  366TF     S9924354   1.967   5.982   6.064 -0.1079 -0.1546  0.4509
  366TF    O91024355   2.052   5.918   5.965 -0.0106 -0.2050 -0.0604
  366TF    O91124356   2.039   6.071   6.149 -0.4286 -0.6272 -0.3050
  366TF     C9Z24357   1.863   6.106   5.969 -0.1596 -0.4752  0.5875
  366TF    F91324358   1.795   6.174   6.061 -0.3069 -0.1845 -0.3570
  366TF    F91424359   1.941   6.194   5.903 -0.3040  0.0333 -0.0285
  366TF    F91524360   1.760   6.077   5.889  0.9940  0.2798 -0.1965
  367TF     S9124361   1.044   5.235   4.812  0.1138 -0.2657 -0.1901
  367TF     O9224362   1.145   5.305   4.893  0.0565 -0.2089 -0.2300
  367TF     O9324363   1.020   5.099   4.844  0.3102 -0.0742  0.0381
  367TF     C9Z24364   0.878   5.319   4.839 -0.8060  0.1490  0.0069
  367TF     F9524365   0.773   5.256   4.788  0.0737 -0.0331 -0.7471
  367TF     F9624366   0.874   5.446   4.801 -0.1744 -0.3057 -0.0960
  367TF     F9724367   0.861   5.317   4.967 -0.0624  0.0317  0.3768
  367TF     N9824368   1.075   5.250   4.663  0.1588  0.5528  0.3549
  367TF     S9924369   1.166   5.154   4.587 -0.0835 -0.1527  0.1809
  367TF    O91024370   1.105   5.026   4.562  0.9260  0.2279 -0.1072
  367TF    O91124371   1.307   5.142   4.621  0.4506 -0.4495 -0.1816
  367TF     C9Z24372   1.169   5.224   4.416  0.1785  0.1877 -0.0678
  367TF    F91324373   1.224   5.134   4.328  0.4732  0.5545  0.5246
  367TF    F91424374   1.046   5.237   4.376  0.0488  0.5833 -0.2273
  367TF    F91524375   1.234   5.338   4.388 -1.1329 -0.1103 -0.2307
  368TF     S9124376   3.563   6.103   2.396 -0.1428  0.0708 -0.2549
  368TF     O9224377   3.540   5.967   2.350  0.1269  0.0767 -0.2128
  368TF     O9324378   3.491   6.217   2.342 -0.2763  0.2213 -0.0302
  368TF     C9Z24379   3.514   6.109   2.577 -0.2681 -0.3369  0.5178
  368TF     F9524380   3.574   6.008   2.638  0.2292 -0.1175  0.7500
  368TF     F9624381   3.384   6.087   2.604  0.1242  0.4122  0.6008
  368TF     F9724382   3.554   6.217   2.641  0.4534  0.1875 -0.5459
  368TF     N9824383   3.715   6.132   2.406 -0.2796 -0.1445  0.2677
  368TF     S9924384   3.798   6.183   2.280  0.1035 -0.6703 -0.0143
  368TF    O91024385   3.819   6.325   2.282  0.3038  0.2426 -0.1118
  368TF    O91124386   3.738   6.116   2.165  0.0992  0.0035 -0.0725
  368TF     C9Z24387   3.968   6.105   2.302  0.5892 -0.1039 -0.2714
  368TF    F91324388   4.045   6.166   2.393  0.1203  0.0467 -0.2528
  368TF    F91424389   3.960   5.975   2.337 -0.5321  0.0914  0.2174
  368TF    F91524390   4.041   6.112   2.194 -0.2814  0.1105  0.3422
  369TF     S9124391   5.983   1.509   6.546  0.2315 -0.1635  0.3928
  369TF     O9224392   6.021   1.646   6.518  0.7528  0.2399 -0.7113
  369TF     O9324393   6.057   1.400   6.493 -0.0554 -0.2048  0.2028
  369TF     C9Z24394   5.974   1.491   6.728 -0.7015  0.1845  0.4718
  369TF     F9524395   5.891   1.394   6.773  0.3530  0.1434 -0.4507
  369TF     F9624396   5.933   1.602   6.787 -0.2922 -0.0094  0.3825
  369TF     F9724397   6.094   1.466   6.778  0.3673 -0.0066  0.5686
  369TF     N9824398   5.834   1.492   6.512 -0.0885 -0.4888  0.0460
  369TF     S9924399   5.775   1.532   6.377  0.0085  0.2142 -0.1869
  369TF    O91024400   5.866   1.536   6.264  0.2873 -0.3466  0.6995
  369TF    O91124401   5.684   1.640   6.401  0.1113 -0.3623  0.2813
  369TF     C9Z24402   5.675   1.380   6.329 -0.1914  0.2452  0.5518
  369TF    F91324403   5.755   1.278   6.287 -0.0096  0.3196  0.1253
  369TF    F91424404   5.613   1.327   6.429 -0.0879 -0.3172 -0.4537
  369TF    F91524405   5.582   1.398   6.233 -0.0861 -0.0518  0.0768
  370TF     S9124406   6.541   0.910   6.129 -0.1571  0.6093 -0.0060
  370TF     O9224407   6.544   1.025   6.215 -0.0394 -0.1948 -0.8736
  370TF     O9324408   6.637   0.806   6.143  0.2592  0.5592 -0.0475
  370TF     C9Z24409   6.391   0.815   6.187  0.1719  0.1125 -0.1921
  370TF     F9524410   6.278   0.870   6.152  0.4647 -0.1322 -0.6153
  370TF     F9624411   6.375   0.806   6.321 -0.2803  0.5028  0.0025
  370TF     F9724412   6.386   0.690   6.144  0.2126 -0.1030  0.4152
  370TF     N9824413   6.509   0.942   5.984 -0.0992 -0.1043  0.6421
  370TF     S9924414   6.612   1.049   5.924 -0.0252 -0.4448 -0.1649
  370TF    O91024415   6.742   1.053   5.978  0.0475  0.1637  0.1751
  370TF    O91124416   6.547   1.178   5.927 -0.3652  0.6546  0.3219
  370TF     C9Z24417   6.625   0.999   5.745 -0.0337 -0.0721  0.0646
  370TF    F91324418   6.668   1.100   5.667 -0.0871  0.1564 -0.2303
  370TF    F91424419   6.699   0.888   5.726  0.3305  0.2818 -0.2828
  370TF    F91524420   6.505   0.966   5.702 -0.0069  0.2718 -0.4982
  371TF     S9124421   1.528   0.369   2.593 -0.0841 -0.1548 -0.0320
  371TF     O9224422   1.534   0.257   2.510 -0.5465  0.4820  0.4719
  371TF     O9324423   1.642   0.399   2.678 -0.1299  0.0547 -0.1993
  371TF     C9Z24424   1.516   0.515   2.484 -0.0989 -0.1364  0.1853
  371TF     F9524425   1.623   0.541   2.407  0.0464 -0.2769  0.0099
  371TF     F9624426   1.484   0.629   2.552 -0.1981 -0.4552 -0.4034
  371TF     F9724427   1.414   0.493   2.402  0.2898  0.5441 -0.6363
  371TF     N9824428   1.390   0.379   2.667 -0.0597 -0.2816  0.4446
  371TF     S9924429   1.384   0.425   2.812 -0.0531  0.4595 -0.2406
  371TF    O91024430   1.430   0.561   2.837  0.3916 -0.5051 -0.6779
  371TF    O91124431   1.443   0.328   2.896  0.6110 -0.0670  0.4647
  371TF     C9Z24432   1.201   0.437   2.841  0.1963  0.1208 -0.6239
  371TF    F91324433   1.146   0.318   2.827  0.2596 -0.2666  0.2847
  371TF    F91424434   1.166   0.481   2.960  0.3621  0.2480  0.0109
  371TF    F91524435   1.142   0.524   2.763 -0.1446 -0.2815 -0.4249
  372TF     S9124436   5.255   2.034   1.249  0.2312  0.0269  0.4158
  372TF     O9224437   5.156   1.978   1.334  0.2363 -0.0999 -0.4089
  372TF     O9324438   5.383   1.964   1.243 -0.6854  0.4789  0.3120
  372TF     C9Z24439   5.178   2.045   1.082  0.9957 -0.1481 -0.3201
  372TF     F9524440   5.261   2.088   0.991 -0.5023 -0.2268 -0.3163
  372TF     F9624441   5.073   2.120   1.073  0.2858  0.1182  0.1882
  372TF     F9724442   5.141   1.924   1.044  0.0538  0.0702  0.2412
  372TF     N9824443   5.279   2.183   1.286 -0.7941 -0.1908 -1.0809
  372TF     S9924444   5.416   2.257   1.253  0.1142  0.3563  0.1075
  372TF    O91024445   5.431   2.281   1.115  0.0721 -0.2836  0.1294
  372TF    O91124446   5.528   2.206   1.322 -0.5956  0.2071  0.1132
  372TF     C9Z24447   5.384   2.421   1.328 -0.1490  0.0633  0.0502
  372TF    F91324448   5.303   2.423   1.430 -0.2228  0.0104  0.2214
  372TF    F91424449   5.500   2.478   1.375 -0.1656  0.3733  0.5160
  372TF    F91524450   5.318   2.507   1.248 -0.1023 -0.1294  0.2331
  373TF     S9124451   5.545   4.570   1.213  0.0148 -0.0649  0.1711
  373TF     O9224452   5.585   4.489   1.101  0.0316  0.0950 -0.0010
  373TF     O9324453   5.518   4.708   1.189 -0.1148 -0.0752  0.4058
  373TF     C9Z24454   5.378   4.500   1.274 -0.1820 -0.1956 -0.0068
  373TF     F9524455   5.398   4.387   1.346 -0.0619 -0.0146 -0.2462
  373TF     F9624456   5.290   4.461   1.174  0.2274  0.8472 -0.1257
  373TF     F9724457   5.312   4.588   1.353 -0.0240 -0.1823 -0.5863
  373TF     N9824458   5.632   4.555   1.332 -0.5228  0.3469 -0.4289
  373TF     S9924459   5.773   4.494   1.314 -0.2310 -0.0414 -0.2385
  373TF    O91024460   5.864   4.575   1.238  0.2381  0.8821  0.0226
  373TF    O91124461   5.776   4.353   1.283 -0.0095 -0.5817  0.0621
  373TF     C9Z24462   5.842   4.500   1.485 -0.0465 -0.0949  0.4648
  373TF    F91324463   5.963   4.452   1.488 -0.3542  0.7518  0.3761
  373TF    F91424464   5.849   4.627   1.531 -0.5390 -0.2896  0.2430
  373TF    F91524465   5.781   4.424   1.575  0.5312  0.4039  0.1786
  374TF     S9124466   4.420   2.752   3.828 -0.3979  0.2688  0.0309
  374TF     O9224467   4.330   2.724   3.721  0.5173 -0.7188  0.3152
  374TF     O9324468   4.552   2.797   3.793 -0.6215  0.1708 -0.0458
  374TF     C9Z24469   4.353   2.890   3.925 -0.8709 -0.6645  0.4062
  374TF     F9524470   4.348   2.998   3.855  0.0689  0.6213 -0.1754
  374TF     F9624471   4.423   2.915   4.035 -0.3965 -0.4048 -0.1494
  374TF     F9724472   4.226   2.866   3.960 -0.5903 -0.7637 -0.2184
  374TF     N9824473   4.423   2.633   3.926  0.5652 -0.3466  0.3936
  374TF     S9924474   4.506   2.512   3.903  0.0876  0.2311  0.1585
  374TF    O91024475   4.552   2.475   4.039 -0.4178 -0.0088  0.0321
  374TF    O91124476   4.597   2.520   3.796  0.0874  0.9207  0.8779
  374TF     C9Z24477   4.389   2.379   3.854 -0.4356  0.0973  0.1988
  374TF    F91324478   4.435   2.253   3.846 -0.3226  0.2468  0.3124
  374TF    F91424479   4.273   2.373   3.920 -0.5517  0.0170  0.2724
  374TF    F91524480   4.358   2.415   3.729  0.1278  0.1173 -0.1219
  375TF     S9124481   6.324   3.974   3.750  0.2545  0.4805 -0.1237
  375TF     O9224482   6.225   4.077   3.724 -0.5672  0.1909  0.0366
  375TF     O9324483   6.457   4.011   3.709 -0.0990 -0.3939  0.2572
  375TF     C9Z24484   6.340   3.969   3.934  0.4023 -0.1638 -0.2661
  375TF     F9524485   6.411   3.869   3.969 -0.2268  0.0471  0.1501
  375TF     F9624486   6.225   3.964   4.000  0.0791 -0.4520  0.0240
  375TF     F9724487   6.413   4.075   3.982 -0.2430 -0.2233  0.6606
  375TF     N9824488   6.288   3.825   3.707  0.7624 -0.2759 -0.0859
  375TF     S9924489   6.227   3.797   3.560  0.0231 -0.1494  0.1995
  375TF    O91024490   6.294   3.876   3.458  0.0265  0.0249  0.8965
  375TF    O91124491   6.087   3.790   3.552 -1.0120 -0.1143 -0.4137
  375TF     C9Z24492   6.305   3.635   3.538  0.5765 -0.5970 -0.5952
  375TF    F91324493   6.433   3.636   3.559 -0.0030  0.3359  0.2873
  375TF    F91424494   6.253   3.552   3.622 -0.0723 -0.4021  0.0459
  375TF    F91524495   6.283   3.593   3.410 -0.2038  0.1919  0.2337
  376TF     S9124496   1.245   0.933   0.140 -0.1010  0.1186 -0.1009
  376TF     O9224497   1.357   0.876   0.216  0.2591 -0.4692 -0.1476
  376TF     O9324498   1.257   0.925  -0.005 -0.2071 -0.4996  0.1691
  376TF     C9Z24499   1.095   0.833   0.193  0.5611 -0.2461 -1.1799
  376TF     F9524500   1.070   0.849   0.323 -0.1512  0.1069  0.2747
  376TF     F9624501   1.111   0.705   0.168 -0.2495 -0.5458 -0.2839
  376TF     F9724502   0.983   0.877   0.139 -0.5215 -0.0628 -0.4620
  376TF     N9824503   1.200   1.074   0.195 -0.2976 -0.3667  0.1343
  376TF     S9924504   1.268   1.147   0.318  0.0049 -0.1072 -0.0926
  376TF    O91024505   1.389   1.215   0.279  0.3242 -0.0042  0.0684
  376TF    O91124506   1.283   1.072   0.442 -0.0502  0.3799 -0.2180
  376TF     C9Z24507   1.147   1.279   0.357  0.4669 -0.0232 -0.1732
  376TF    F91324508   1.125   1.358   0.251  0.5428  0.3865 -0.0308
  376TF    F91424509   1.028   1.230   0.391 -0.2996  0.7865  0.2952
  376TF    F91524510   1.176   1.367   0.453 -0.0438 -0.7518 -0.0354
  377TF     S9124511   2.138   0.948   0.148 -0.1985 -0.2695  0.5005
  377TF     O9224512   2.182   1.088   0.139 -0.0444 -0.2496  0.2475
  377TF     O9324513   2.156   0.869   0.031 -0.9662 -0.3074  0.5412
  377TF     C9Z24514   2.248   0.881   0.276 -0.3937 -0.2297 -0.5769
  377TF     F9524515   2.209   0.766   0.325 -0.6757 -0.2459 -0.2641
  377TF     F9624516   2.262   0.964   0.378  0.2641  0.0829 -0.1011
  377TF     F9724517   2.370   0.859   0.234 -0.3182  0.3664 -0.0760
  377TF     N9824518   1.996   0.944   0.206 -0.4961  0.0463  0.9298
  377TF     S9924519   1.876   1.000   0.126 -0.2616  0.1981 -0.1376
  377TF    O91024520   1.903   1.026  -0.013  0.1379  0.2172  0.3784
  377TF    O91124521   1.799   1.093   0.199  0.2181 -0.8873 -0.4378
  377TF     C9Z24522   1.773   0.845   0.127  0.2768  0.0812  0.4670
  377TF    F91324523   1.835   0.742   0.073 -0.3515  0.0051  0.3143
  377TF    F91424524   1.740   0.818   0.252 -0.1907 -0.1358 -0.4134
  377TF    F91524525   1.654   0.859   0.067 -0.0875  0.0069 -0.4794
  378TF     S9124526   3.031   0.419   6.281 -0.0456  0.1661  0.2203
  378TF     O9224527   2.998   0.563   6.280  0.4942  0.0767  0.2528
  378TF     O9324528   2.961   0.335   6.189 -0.0243 -0.2497  0.2821
  378TF     C9Z24529   3.208   0.409   6.232  0.0676 -0.2453 -0.3711
  378TF     F9524530   3.259   0.294   6.278  0.1629  0.4915  0.3067
  378TF     F9624531   3.280   0.504   6.291  0.0074  0.3357  0.1072
  378TF     F9724532   3.233   0.413   6.103  0.0920  0.2582 -0.3060
  378TF     N9824533   3.034   0.368   6.427  0.6057  0.0174 -0.6738
  378TF     S9924534   2.923   0.388   6.534 -0.4070 -0.1857  0.5728
  378TF    O91024535   2.910   0.279   6.624  0.0619 -0.5231 -0.3362
  378TF    O91124536   2.802   0.448   6.480  0.1006 -0.0418 -0.2056
  378TF     C9Z24537   2.998   0.528   6.637  0.3488 -0.1027  0.1189
  378TF    F91324538   2.949   0.536   6.759 -0.1330  0.0145 -0.6368
  378TF    F91424539   3.135   0.521   6.642 -0.1152 -0.0149  0.0824
  378TF    F91524540   2.962   0.649   6.589 -0.4057 -0.4175 -0.8301
  379TF     S9124541   3.020   1.870   5.664 -0.7663 -0.0263 -0.1016
  379TF     O9224542   2.890   1.831   5.611  0.2252  0.1266  0.5229
  379TF     O9324543   3.128   1.891   5.569 -0.0726  0.1542 -0.4721
  379TF     C9Z24544   2.971   2.040   5.728  0.7024  0.3904  0.0523
  379TF     F9524545   2.869   2.034   5.824  0.8806 -1.0432  0.2003
  379TF     F9624546   2.920   2.115   5.629 -0.0338  0.2179 -0.1371
  379TF     F9724547   3.067   2.101   5.791 -0.5866 -0.4102  0.4652
  379TF     N9824548   3.080   1.786   5.775 -0.0660  0.3120 -0.4148
  379TF     S9924549   3.127   1.639   5.762  0.0676  0.2635  0.0025
  379TF    O91024550   3.261   1.622   5.808 -0.5503 -0.0386 -0.6779
  379TF    O91124551   3.092   1.586   5.631  0.2181  0.3261 -0.0789
  379TF     C9Z24552   3.025   1.544   5.882  0.2636 -0.0683  0.3943
  379TF    F91324553   3.080   1.536   6.006  0.0528  0.2917  0.0540
  379TF    F91424554   2.904   1.591   5.898  0.1689  0.0282 -0.2257
  379TF    F91524555   3.016   1.417   5.850  0.0987  0.5140  0.3583
  380TF     S9124556   2.123   6.211   2.236 -0.0362  0.2218 -0.2387
  380TF     O9224557   2.160   6.074   2.217 -0.6412  0.0059 -0.0009
  380TF     O9324558   1.991   6.247   2.184  0.5850 -0.0737 -0.8474
  380TF     C9Z24559   2.108   6.222   2.427  0.0874 -0.4354 -0.1935
  380TF     F9524560   2.216   6.187   2.496 -0.0761 -0.0617 -0.6827
  380TF     F9624561   2.008   6.153   2.474 -0.3965 -0.1629 -0.0557
  380TF     F9724562   2.080   6.346   2.466 -0.0152  0.4859 -0.0111
  380TF     N9824563   2.235   6.311   2.199 -0.1998 -0.4862 -0.0146
  380TF     S9924564   2.192   6.457   2.156  0.1289 -0.3799  0.3266
  380TF    O91024565   2.080   6.501   2.234 -0.5633  0.1307  0.1484
  380TF    O91124566   2.190   6.479   2.015 -0.1172  0.1042 -0.1023
  380TF     C9Z24567   2.321   6.571   2.215 -0.2131 -0.0317  0.2133
  380TF    F91324568   2.441   6.540   2.166 -0.0176  0.1031 -0.1518
  380TF    F91424569   2.307   6.702   2.199  0.1220 -0.2059 -0.1350
  380TF    F91524570   2.326   6.542   2.346 -0.6651  0.0589  0.2321
  381TF     S9124571   6.688   1.184   4.306 -0.2596  0.0305 -0.0669
  381TF     O9224572   6.542   1.206   4.291  0.7383  0.0053  0.0680
  381TF     O9324573   6.764   1.142   4.193 -0.3559  0.2575  0.3865
  381TF     C9Z24574   6.760   1.348   4.344  0.7037  0.6254 -0.5658
  381TF     F9524575   6.881   1.335   4.389  0.2747 -0.2020  0.6808
  381TF     F9624576   6.687   1.417   4.427  0.1623  0.1212  0.0528
  381TF     F9724577   6.767   1.420   4.241 -0.1811 -0.4758  0.5908
  381TF     N9824578   6.721   1.109   4.436  0.1805 -0.1799 -0.6648
  381TF     S9924579   6.660   0.974   4.458  0.3582  0.0681  0.5259
  381TF    O91024580   6.685   0.885   4.348 -0.2068 -0.4508 -0.0349
  381TF    O91124581   6.525   0.980   4.505 -0.1642  0.0457  0.2861
  381TF     C9Z24582   6.767   0.901   4.590 -0.2625  0.5493 -0.0691
  381TF    F91324583   6.728   0.775   4.610 -0.6233  0.3932 -0.0372
  381TF    F91424584   6.897   0.897   4.563  0.4042  0.1838 -0.4908
  381TF    F91524585   6.746   0.965   4.704  0.4667  0.0541 -0.2540
  382TF     S9124586   1.758   3.670   5.932 -0.2712 -0.1652 -0.1301
  382TF     O9224587   1.708   3.537   5.897  0.2486  0.3422 -0.0681
  382TF     O9324588   1.667   3.781   5.931  0.3868 -0.2109 -0.4313
  382TF     C9Z24589   1.789   3.655   6.114  0.4449  0.2328 -0.7082
  382TF     F9524590   1.861   3.545   6.142 -0.1618 -0.2039  0.5120
  382TF     F9624591   1.677   3.638   6.184 -0.1001 -0.1255  0.1832
  382TF     F9724592   1.855   3.755   6.168 -0.2916  0.1119 -0.3600
  382TF     N9824593   1.895   3.703   5.874 -0.2176 -0.9496 -0.1875
  382TF     S9924594   1.968   3.589   5.793 -0.3255  0.5414 -0.2122
  382TF    O91024595   1.907   3.556   5.667 -0.3096 -0.6171  0.3297
  382TF    O91124596   2.010   3.474   5.873  0.3124  0.4829  0.1828
  382TF     C9Z24597   2.125   3.670   5.745 -0.1966  0.3463  0.6888
  382TF    F91324598   2.167   3.747   5.850  0.3629  0.5286 -0.6412
  382TF    F91424599   2.222   3.581   5.728 -0.6033  0.5205 -0.1858
  382TF    F91524600   2.135   3.745   5.638  0.1689  0.0712 -0.0559
  383TF     S9124601   5.141   5.185   2.240 -0.3980 -0.5589  0.1428
  383TF     O9224602   5.273   5.230   2.262  0.2555 -0.7904  0.5635
  383TF     O9324603   5.040   5.266   2.295  0.0379 -0.2961 -0.2169
  383TF     C9Z24604   5.114   5.214   2.061 -0.2076 -0.8960  0.1792
  383TF     F9524605   5.194   5.143   1.985  0.5269 -0.6931 -0.5466
  383TF     F9624606   5.137   5.342   2.025  0.5586 -0.2160 -0.3880
  383TF     F9724607   4.990   5.182   2.032 -0.3270  0.1343  0.1543
  383TF     N9824608   5.113   5.033   2.255  0.1554  0.0382  0.2340
  383TF     S9924609   5.222   4.924   2.263  0.4544 -0.5490  0.2834
  383TF    O91024610   5.341   4.961   2.326  0.0467  0.0751 -0.2512
  383TF    O91124611   5.236   4.868   2.131 -0.3408 -0.2566 -0.5719
  383TF     C9Z24612   5.139   4.792   2.371 -0.3279  0.5857  0.1612
  383TF    F91324613   5.225   4.696   2.407 -0.1395  0.1946 -0.0917
  383TF    F91424614   5.086   4.840   2.481  0.3311  0.1829  0.2408
  383TF    F91524615   5.042   4.731   2.312 -0.0147  0.2127  0.7038
  384TF     S9124616   6.155   2.729   3.130 -0.1128 -0.3597 -0.2696
  384TF     O9224617   6.154   2.874   3.115  0.1318  0.2851  0.4532
  384TF     O9324618   6.285   2.677   3.101  0.0311  0.2617 -0.3064
  384TF     C9Z24619   6.129   2.688   3.301  0.3340  0.1150 -0.3129
  384TF     F9524620   6.014   2.731   3.358  0.1639 -0.4088  0.4492
  384TF     F9624621   6.232   2.724   3.376  0.3121 -0.1261  0.1854
  384TF     F9724622   6.126   2.551   3.315  0.0489  0.0396  0.7656
  384TF     N9824623   6.044   2.664   3.057  0.1208 -0.2921 -0.2182
  384TF     S9924624   6.053   2.623   2.902 -0.0652 -0.2840  0.0954
  384TF    O91024625   6.101   2.488   2.882  0.0518  0.3026 -0.2854
  384TF    O91124626   6.123   2.731   2.834 -0.2722  0.7590  0.6745
  384TF     C9Z24627   5.879   2.633   2.823  0.4364 -0.0749 -0.3698
  384TF    F91324628   5.811   2.739   2.867  0.5745 -0.3296  0.2665
  384TF    F91424629   5.900   2.649   2.694 -0.1914 -0.0248 -0.7600
  384TF    F91524630   5.793   2.533   2.819 -0.0595 -0.0381 -0.1587
  385TF     S9124631   4.838   3.461   1.620  0.0514 -0.3834 -0.4334
  385TF     O9224632   4.727   3.496   1.537 -0.0425 -0.2210 -0.0514
  385TF     O9324633   4.850   3.318   1.647 -0.6809  0.4795  0.5245
  385TF     C9Z24634   4.989   3.497   1.504  0.2745  0.0904  0.5885
  385TF     F9524635   4.972   3.608   1.423  0.3174  0.5894  0.7241
  385TF     F9624636   5.017   3.388   1.429  0.3552 -0.7459 -0.3833
  385TF     F9724637   5.101   3.521   1.575 -0.3940 -0.1995  0.1067
  385TF     N9824638   4.864   3.554   1.739  1.0508  0.1078  0.1006
  385TF     S9924639   4.837   3.520   1.887  0.0172 -0.1996  0.8414
  385TF    O91024640   4.928   3.421   1.936  0.0211  0.3432 -0.6875
  385TF    O91124641   4.697   3.496   1.914 -0.0507  0.5806  0.2731
  385TF     C9Z24642   4.867   3.674   1.977 -0.1408 -0.3434 -0.3677
  385TF    F91324643   4.845   3.649   2.107  0.0725 -0.5057  0.3908
  385TF    F91424644   4.994   3.718   1.976 -0.1831 -0.2038 -0.3764
  385TF    F91524645   4.802   3.786   1.944 -0.3548  0.5536 -0.2246
  386TF     S9124646   6.045   4.160   3.202  0.4084 -0.1123  0.0910
  386TF     O9224647   6.064   4.234   3.324  0.0587 -0.0967  0.0987
  386TF     O9324648   6.145   4.057   3.172  0.5031  0.7124 -0.1514
  386TF     C9Z24649   5.890   4.075   3.245  0.3013 -0.4575 -0.0875
  386TF     F9524650   5.907   3.992   3.354 -0.0965 -0.3145 -0.0512
  386TF     F9624651   5.840   3.998   3.149 -0.0383 -0.4742  0.2570
  386TF     F9724652   5.793   4.153   3.286 -0.7988 -0.1005 -0.2532
  386TF     N9824653   6.000   4.249   3.080 -0.1072  0.0724 -0.9719
  386TF     S9924654   5.929   4.388   3.104 -0.2854  0.5840  0.0383
  386TF    O91024655   5.986   4.458   3.215 -0.6336 -0.0778  0.3414
  386TF    O91124656   5.788   4.379   3.085 -0.5001  0.2373  0.0242
  386TF     C9Z24657   5.970   4.485   2.955  0.0996  0.6005 -0.2345
  386TF    F91324658   6.095   4.536   2.953  0.2889 -0.1206 -0.0087
  386TF    F91424659   5.955   4.416   2.843  0.5823  0.5467 -0.2094
  386TF    F91524660   5.900   4.595   2.941  0.2526 -0.3177 -0.0898
  387TF     S9124661   1.327   4.279   5.640 -0.0200 -0.3243  0.5117
  387TF     O9224662   1.450   4.204   5.639  0.5236  0.8895  0.1866
  387TF     O9324663   1.257   4.282   5.766  0.0594  0.0736  0.3623
  387TF     C9Z24664   1.381   4.451   5.619 -0.1553  0.2603  0.4308
  387TF     F9524665   1.283   4.532   5.595  0.1759 -0.3677  0.1564
  387TF     F9624666   1.452   4.469   5.510 -0.5012  0.0905 -0.5052
  387TF     F9724667   1.451   4.502   5.720  0.0735 -0.0258  0.0334
  387TF     N9824668   1.240   4.242   5.523  0.3789 -0.5456 -0.6226
  387TF     S9924669   1.268   4.117   5.435  0.1460 -0.4818  0.0781
  387TF    O91024670   1.162   4.082   5.350 -0.1110 -0.9460 -0.2289
  387TF    O91124671   1.329   4.000   5.500  0.2733 -0.0276 -0.2819
  387TF     C9Z24672   1.394   4.182   5.317  0.1872  0.4795 -0.1695
  387TF    F91324673   1.417   4.097   5.215 -0.1693  0.0249 -0.1113
  387TF    F91424674   1.373   4.307   5.267 -0.1563 -0.0034 -0.4729
  387TF    F91524675   1.510   4.195   5.377 -0.2628 -0.1926 -0.3850
  388TF     S9124676   2.164   1.436   1.574 -0.0214 -0.0555 -0.3349
  388TF     O9224677   2.067   1.381   1.485  0.0215  0.0145 -0.3555
  388TF     O9324678   2.266   1.516   1.511 -0.4908 -0.3818  0.2322
  388TF     C9Z24679   2.088   1.552   1.688  0.0200 -0.2922  0.1035
  388TF     F9524680   1.998   1.491   1.764 -0.2183 -0.0159 -0.4998
  388TF     F9624681   2.029   1.648   1.626  0.0095  0.1968  0.5347
  388TF     F9724682   2.176   1.614   1.770 -0.0941  0.1448  0.4733
  388TF     N9824683   2.220   1.335   1.676  0.3568 -0.3008  0.0597
  388TF     S9924684   2.291   1.207   1.626  0.7246 -0.1362  0.1297
  388TF    O91024685   2.406   1.237   1.544  0.3489 -0.9044 -0.4889
  388TF    O91124686   2.207   1.099   1.576 -0.7478 -0.5299  0.0085
  388TF     C9Z24687   2.374   1.142   1.781 -0.0145 -0.2627  0.3148
  388TF    F91324688   2.287   1.097   1.870 -0.3185 -0.0256 -0.3812
  388TF    F91424689   2.452   1.041   1.746  0.2125  0.1402 -0.4393
  388TF    F91524690   2.445   1.218   1.859 -0.2353 -0.0951  0.0466
  389TF     S9124691   3.730   2.614   5.552  0.2594 -0.1447 -0.2234
  389TF     O9224692   3.650   2.562   5.447 -0.2191 -0.5513 -0.1141
  389TF     O9324693   3.797   2.522   5.640 -0.1637  1.0694  0.8289
  389TF     C9Z24694   3.873   2.684   5.457 -1.2844  0.3058  0.1274
  389TF     F9524695   3.929   2.793   5.492 -0.2242 -0.0390  0.2655
  389TF     F9624696   3.864   2.677   5.322 -0.6798 -0.6760 -0.5904
  389TF     F9724697   3.968   2.593   5.474  0.0446  0.0760 -0.4261
  389TF     N9824698   3.664   2.738   5.625  0.0248  0.6093 -0.7360
  389TF     S9924699   3.510   2.734   5.656 -0.1298  0.2643 -0.4129
  389TF    O91024700   3.465   2.595   5.667 -0.5031  0.1118 -0.0332
  389TF    O91124701   3.426   2.814   5.565 -0.2964  0.6011 -0.0926
  389TF     C9Z24702   3.501   2.808   5.827 -0.1606 -1.0121  0.9783
  389TF    F91324703   3.384   2.789   5.883  0.4650 -0.2002 -0.0910
  389TF    F91424704   3.590   2.762   5.912  0.5719 -0.2852 -0.3896
  389TF    F91524705   3.525   2.941   5.821 -0.1604  0.1324 -0.1699
  390TF     S9124706   3.270   1.456   1.735  0.3619 -0.4615 -0.0026
  390TF     O9224707   3.400   1.510   1.722  0.2555 -0.1908 -0.4995
  390TF     O9324708   3.211   1.388   1.621  0.5404  0.5517 -0.0245
  390TF     C9Z24709   3.288   1.340   1.876 -0.1651  0.0888 -0.2598
  390TF     F9524710   3.322   1.215   1.836 -0.6526 -0.3010 -0.3766
  390TF     F9624711   3.190   1.333   1.958  0.3400 -0.1770 -0.2387
  390TF     F9724712   3.390   1.376   1.948 -0.1435  0.4389 -0.0143
  390TF     N9824713   3.178   1.557   1.796  0.8240 -0.2858 -0.1810
  390TF     S9924714   3.111   1.662   1.698  0.1927 -0.0903  0.4884
  390TF    O91024715   3.014   1.608   1.607  0.5606  0.3031 -0.2170
  390TF    O91124716   3.204   1.757   1.641 -0.1843  0.6310  0.0092
  390TF     C9Z24717   3.009   1.779   1.811  0.0568  0.0451  0.7642
  390TF    F91324718   2.949   1.881   1.753  0.6171  0.9031  0.3483
  390TF    F91424719   2.915   1.710   1.877 -0.1732  0.1385 -0.1818
  390TF    F91524720   3.089   1.835   1.901 -0.3541  0.0595  0.7654
  391TF     S9124721   6.159   5.338   0.298  0.1375  0.0199 -0.2307
  391TF     O9224722   6.174   5.358   0.154 -0.3011  0.0107  0.5002
  391TF     O9324723   6.282   5.300   0.368 -0.7264  0.0954 -0.3140
  391TF     C9Z24724   6.119   5.500   0.375  0.3968 -0.6810  0.0075
  391TF     F9524725   6.022   5.573   0.314 -0.2991 -0.2965  0.6010
  391TF     F9624726   6.223   5.584   0.367 -0.2923  0.2309  0.1886
  391TF     F9724727   6.075   5.492   0.500 -0.0543 -0.1673  0.0809
  391TF     N9824728   6.038   5.247   0.323 -0.1397 -0.9287  0.7389
  391TF     S9924729   6.009   5.172   0.454 -0.2959  0.0130 -0.1744
  391TF    O91024730   6.050   5.239   0.573  0.0660 -0.4314  0.4127
  391TF    O91124731   6.037   5.029   0.448 -0.3822 -0.5375 -0.5249
  391TF     C9Z24732   5.819   5.185   0.450 -0.5046 -0.4311  0.0403
  391TF    F91324733   5.774   5.161   0.580 -0.3082 -0.1364  0.3839
  391TF    F91424734   5.777   5.313   0.415 -0.4934  0.3253  0.1666
  391TF    F91524735   5.743   5.104   0.374  0.5509 -0.1504  0.1439
  392TF     S9124736   6.735   6.401   2.633 -0.3894 -0.0176 -0.3994
  392TF     O9224737   6.851   6.476   2.590  0.1812 -0.0046 -0.0493
  392TF     O9324738   6.645   6.341   2.537 -0.6965  0.2109  0.2944
  392TF     C9Z24739   6.804   6.257   2.736 -0.4958 -0.0041 -0.1663
  392TF     F9524740   6.890   6.279   2.834  0.3108  0.3055 -0.0208
  392TF     F9624741   6.870   6.166   2.660  0.5768  0.1960 -0.2208
  392TF     F9724742   6.702   6.187   2.791 -0.5253 -0.2572 -0.8488
  392TF     N9824743   6.646   6.470   2.742  0.1531 -0.0800 -0.1433
  392TF     S9924744   6.560   6.594   2.703  0.3766 -0.1020 -0.2847
  392TF    O91024745   6.415   6.571   2.703 -0.0192  0.2186  0.3009
  392TF    O91124746   6.613   6.663   2.588  0.1878  0.3830 -0.0344
  392TF     C9Z24747   6.594   6.712   2.841 -0.5388  0.1561  0.5055
  392TF    F91324748   6.523   6.825   2.826  0.2266 -0.0237 -0.3987
  392TF    F91424749   6.547   6.662   2.956 -0.6607 -0.1577 -0.3975
  392TF    F91524750   6.718   6.751   2.861 -0.2312  0.1873 -0.0506
  393TF     S9124751   5.481   1.796   3.518 -0.0583  0.2455  0.0522
  393TF     O9224752   5.483   1.913   3.437 -0.4529 -0.5410  0.8490
  393TF     O9324753   5.355   1.744   3.577 -0.3353 -0.3809  0.1658
  393TF     C9Z24754   5.533   1.653   3.401 -0.1394  0.0131 -0.1107
  393TF     F9524755   5.652   1.665   3.346  0.6633  0.0899 -0.0530
  393TF     F9624756   5.452   1.646   3.302  0.1640 -0.2005 -0.3574
  393TF     F9724757   5.523   1.535   3.459  0.5801  0.1040  0.1987
  393TF     N9824758   5.603   1.787   3.620 -0.3609  0.3419  0.2180
  393TF     S9924759   5.616   1.909   3.720  0.1025 -0.2281 -0.1308
  393TF    O91024760   5.488   1.927   3.782 -0.0738 -0.1187  0.0578
  393TF    O91124761   5.673   2.024   3.668 -0.0735 -0.1676  0.0975
  393TF     C9Z24762   5.734   1.854   3.855  0.2964  0.1405  0.5843
  393TF    F91324763   5.789   1.950   3.934  0.0567 -0.3019  0.3970
  393TF    F91424764   5.675   1.770   3.936  0.0260  0.4214 -0.4791
  393TF    F91524765   5.846   1.784   3.812  0.4666 -0.0916  0.0347
  394TF     S9124766   3.310   6.689   5.214  0.1736  0.1481  0.2195
  394TF     O9224767   3.180   6.747   5.184 -0.3927  0.0567  0.7671
  394TF     O9324768   3.316   6.612   5.338  0.3392  0.2813 -0.1888
  394TF     C9Z24769   3.350   6.562   5.081 -0.1731  0.1615  0.5635
  394TF     F9524770   3.480   6.526   5.078  0.1842  0.3606 -0.6502
  394TF     F9624771   3.316   6.612   4.963  0.2688 -0.3907 -0.0610
  394TF     F9724772   3.281   6.450   5.100  0.0398  0.1962 -0.0607
  394TF     N9824773   3.429   6.796   5.205  0.1110  0.5172 -0.1349
  394TF     S9924774   3.478   6.888   5.325  0.1106 -0.1663  0.2207
  394TF    O91024775   3.479   6.822   5.455  0.9161  0.0229 -0.1613
  394TF    O91124776   3.420   7.021   5.316  0.0729 -0.5586 -0.4307
  394TF     C9Z24777   3.654   6.901   5.278  0.5900 -0.1890  0.0390
  394TF    F91324778   3.669   6.979   5.171  0.0780 -0.0930 -0.4737
  394TF    F91424779   3.727   6.962   5.372 -0.1616  0.1404 -0.4093
  394TF    F91524780   3.704   6.780   5.252 -0.4026 -0.1708 -0.4076
  395TF     S9124781   4.259   5.882   3.408  0.2577  0.0881  0.0535
  395TF     O9224782   4.392   5.924   3.376 -0.0257  0.1264 -0.3358
  395TF     O9324783   4.176   5.973   3.481  0.0202 -0.1473  0.1025
  395TF     C9Z24784   4.176   5.868   3.246 -0.3126 -0.4328  0.2595
  395TF     F9524785   4.229   5.771   3.180 -0.1668 -0.2755  0.6782
  395TF     F9624786   4.182   5.977   3.166 -0.3480  0.0057  0.1079
  395TF     F9724787   4.044   5.845   3.264  0.3447 -0.1917 -0.2615
  395TF     N9824788   4.252   5.737   3.467 -0.3220  0.1694 -0.3311
  395TF     S9924789   4.305   5.692   3.609 -0.3020  0.4078 -0.5734
  395TF    O91024790   4.325   5.805   3.692 -0.0849 -0.3637 -0.1147
  395TF    O91124791   4.408   5.586   3.598 -0.4103  0.0660  0.4048
  395TF     C9Z24792   4.159   5.601   3.680  0.4696  0.1350  0.6089
  395TF    F91324793   4.110   5.497   3.610 -0.8539 -0.0320 -0.1798
  395TF    F91424794   4.187   5.558   3.797  0.2180 -0.0693 -0.5648
  395TF    F91524795   4.061   5.692   3.684 -0.2081 -0.0208  0.4039
  396TF     S9124796   2.066   1.111   4.502 -0.0685 -0.2029 -0.0881
  396TF     O9224797   2.173   1.196   4.446 -0.1302 -0.5547  0.9911
  396TF     O9324798   1.977   1.180   4.602 -0.1579  0.7048 -0.3542
  396TF     C9Z24799   1.959   1.068   4.361  1.2539  0.2904  0.0969
  396TF     F9524800   2.024   1.011   4.256 -0.5287  0.7633 -0.1801
  396TF     F9624801   1.905   1.174   4.312 -0.0586 -0.3696 -0.4768
  396TF     F9724802   1.860   0.984   4.394 -0.3616 -0.4770  0.3019
  396TF     N9824803   2.117   0.975   4.548  0.0796  0.4911 -0.5206
  396TF     S9924804   2.250   0.972   4.627 -0.5012  0.4805 -0.1295
  396TF    O91024805   2.236   1.037   4.752  0.2553  0.0967 -0.8018
  396TF    O91124806   2.362   1.007   4.550  0.3080 -0.1113 -0.3208
  396TF     C9Z24807   2.268   0.798   4.664  0.2505  0.4139 -0.2803
  396TF    F91324808   2.268   0.725   4.553  0.4334  0.3320 -0.0303
  396TF    F91424809   2.373   0.767   4.732 -0.3978 -0.1627  0.5762
  396TF    F91524810   2.162   0.762   4.745  0.0071 -0.6337 -0.4130
  397TF     S9124811   2.485   6.680   4.721  0.3007  0.0939  0.5407
  397TF     O9224812   2.377   6.615   4.644 -0.2738  0.2556 -0.0306
  397TF     O9324813   2.623   6.672   4.673 -0.1083  0.0887 -0.2677
  397TF     C9Z24814   2.439   6.861   4.709  0.2820  0.3809 -0.2470
  397TF     F9524815   2.320   6.892   4.761  0.4050 -0.0234 -0.2656
  397TF     F9624816   2.430   6.894   4.587 -0.2200 -0.1685  0.0413
  397TF     F9724817   2.527   6.936   4.774 -0.1871 -0.5512  0.2543
  397TF     N9824818   2.460   6.663   4.877 -0.1646 -0.4743  0.4786
  397TF     S9924819   2.575   6.614   4.975 -0.1868 -0.1693  0.1110
  397TF    O91024820   2.569   6.671   5.106  0.5063  0.0889  0.1753
  397TF    O91124821   2.706   6.593   4.918 -0.1036  0.1739 -0.5884
  397TF     C9Z24822   2.513   6.447   5.000 -0.1839 -0.5771  0.1986
  397TF    F91324823   2.581   6.371   5.083 -0.2285 -0.5313  0.0270
  397TF    F91424824   2.388   6.450   5.043 -0.0590  0.0027  0.6613
  397TF    F91524825   2.505   6.385   4.885  0.3440 -0.0556 -0.0538
  398TF     S9124826   0.791   2.395   6.211  0.1936 -0.0813  0.0842
  398TF     O9224827   0.865   2.511   6.168  0.4116 -0.3961  0.0789
  398TF     O9324828   0.811   2.343   6.342  0.4733 -0.4035 -0.7690
  398TF     C9Z24829   0.611   2.440   6.213 -0.1112  0.4043 -0.2543
  398TF     F9524830   0.566   2.486   6.101 -0.5485  0.1329  0.0789
  398TF     F9624831   0.579   2.528   6.306  0.2382 -0.4620  0.1759
  398TF     F9724832   0.541   2.332   6.241  0.4821 -0.2996  0.0786
  398TF     N9824833   0.797   2.279   6.107  0.3841  0.7535 -0.7780
  398TF     S9924834   0.923   2.197   6.080 -0.0943  0.4041 -0.1116
  398TF    O91024835   1.048   2.255   6.112 -0.4026  0.2994  0.2701
  398TF    O91124836   0.904   2.133   5.951 -0.2301 -0.0590  0.1419
  398TF     C9Z24837   0.907   2.050   6.194  0.1410  0.5207 -0.1175
  398TF    F91324838   0.786   1.999   6.193  0.3719  0.2318  0.3903
  398TF    F91424839   0.993   1.960   6.148 -0.0816  0.2109  0.0561
  398TF    F91524840   0.937   2.072   6.319 -0.2362  0.1463  0.0768
  399TF     S9124841   1.488   1.475   5.871 -0.1911  0.1142  0.1072
  399TF     O9224842   1.375   1.391   5.836  0.1582 -0.5259  0.5967
  399TF     O9324843   1.610   1.458   5.797 -0.5113  0.3537  0.4262
  399TF     C9Z24844   1.431   1.640   5.830 -0.4804 -0.4341  0.3699
  399TF     F9524845   1.520   1.736   5.862 -0.2672  0.6308 -0.2198
  399TF     F9624846   1.315   1.670   5.889 -0.3771 -0.3821  0.6101
  399TF     F9724847   1.395   1.654   5.701  0.1418 -0.0768 -0.0773
  399TF     N9824848   1.497   1.470   6.023  0.0485  0.1326  0.3873
  399TF     S9924849   1.496   1.343   6.115  0.1318 -0.2770  0.0208
  399TF    O91024850   1.588   1.363   6.226  0.0351  0.3458  0.4790
  399TF    O91124851   1.500   1.220   6.043 -0.1007  0.5341 -0.2534
  399TF     C9Z24852   1.327   1.351   6.189 -0.3825  0.2964 -0.2492
  399TF    F91324853   1.237   1.385   6.097  0.2560 -0.1773  0.5774
  399TF    F91424854   1.287   1.233   6.231 -0.2585  0.2244  0.0536
  399TF    F91524855   1.305   1.431   6.300  0.4325  0.2173  0.3307
  400TF     S9124856   3.363   3.867   6.496 -0.5525  0.0301  0.5180
  400TF     O9224857   3.234   3.925   6.460  0.1955  0.5140  0.0490
  400TF     O9324858   3.380   3.790   6.619 -0.2556  0.0500 -0.0288
  400TF     C9Z24859   3.411   3.746   6.361 -0.7543  0.4797 -0.8393
  400TF     F9524860   3.522   3.667   6.386  0.0852 -0.4613  0.0048
  400TF     F9624861   3.425   3.811   6.248 -0.2182  0.1432 -0.1647
  400TF     F9724862   3.316   3.661   6.332 -0.7978 -0.8341 -0.5451
  400TF     N9824863   3.474   3.972   6.485 -0.9974 -0.4222 -0.2165
  400TF     S9924864   3.504   4.061   6.610 -0.1347  0.1482 -0.1115
  400TF    O91024865   3.636   4.033   6.659 -0.4886  0.4396  0.0339
  400TF    O91124866   3.396   4.069   6.705 -0.1352 -0.1902 -0.1374
  400TF     C9Z24867   3.509   4.231   6.541 -0.5605 -0.0164  0.1708
  400TF    F91324868   3.598   4.261   6.455 -0.3818  0.2235  0.2690
  400TF    F91424869   3.394   4.273   6.500 -0.0346  0.3459  0.1874
  400TF    F91524870   3.534   4.291   6.655  0.4252  0.2316  0.1763
  401TF     S9124871   2.674   2.793   1.790  0.0912 -0.1808 -0.2074
  401TF     O9224872   2.572   2.872   1.856  0.1485 -0.2019  0.4242
  401TF     O9324873   2.808   2.798   1.843 -0.8766 -0.5721  0.1952
  401TF     C9Z24874   2.616   2.618   1.820  0.4873  0.3698 -0.1377
  401TF     F9524875   2.696   2.532   1.765 -0.0780 -0.3765  0.4289
  401TF     F9624876   2.491   2.595   1.772  0.0716  0.3437  0.5455
  401TF     F9724877   2.609   2.591   1.949 -0.0284  0.5377 -0.4303
  401TF     N9824878   2.662   2.796   1.634  0.2039 -0.0552 -0.0806
  401TF     S9924879   2.574   2.900   1.565 -0.3234 -0.2348  0.0371
  401TF    O91024880   2.558   3.024   1.633 -0.2577 -0.3639  0.0611
  401TF    O91124881   2.459   2.841   1.509 -0.6443  0.1406 -0.3337
  401TF     C9Z24882   2.679   2.943   1.409 -0.3109  0.1707  0.2073
  401TF    F91324883   2.726   2.835   1.343  0.6689 -0.7403  0.3687
  401TF    F91424884   2.617   3.013   1.312 -0.4850 -0.3196  0.1381
  401TF    F91524885   2.787   3.014   1.432 -0.6059  0.1731  0.2650
  402TF     S9124886   0.392   0.759   2.588 -0.7952  0.1149 -0.4692
  402TF     O9224887   0.455   0.631   2.564 -0.5591 -0.2227  0.6410
  402TF     O9324888   0.435   0.866   2.501  0.0597  0.2625  1.2593
  402TF     C9Z24889   0.216   0.741   2.536  0.7955 -0.8842 -0.3884
  402TF     F9524890   0.155   0.857   2.535 -0.2497 -0.3902  0.4455
  402TF     F9624891   0.147   0.664   2.618 -0.0323 -0.1278 -0.7061
  402TF     F9724892   0.208   0.681   2.417 -0.0265 -0.1845  0.1110
  402TF     N9824893   0.375   0.802   2.740 -0.6671  0.3192  0.0528
  402TF     S9924894   0.508   0.822   2.819 -0.6729  0.1344 -0.0853
  402TF    O91024895   0.629   0.811   2.737  0.3134 -0.4299  0.2396
  402TF    O91124896   0.507   0.756   2.945 -0.2819  0.3385 -0.5797
  402TF     C9Z24897   0.505   0.997   2.881  0.4449  0.4719 -0.2418
  402TF    F91324898   0.506   1.074   2.775 -0.1879  0.3368  0.4830
  402TF    F91424899   0.400   1.023   2.957 -0.3211 -0.0395  0.3245
  402TF    F91524900   0.614   1.022   2.952  0.2963  0.2139 -0.2125
  403TF     S9124901   5.818   0.875   4.905 -0.3698  0.2788  0.2662
  403TF     O9224902   5.715   0.899   4.807 -0.0529  0.5306 -0.3947
  403TF     O9324903   5.869   0.989   4.971  0.0973 -0.1167  0.1671
  403TF     C9Z24904   5.741   0.768   5.046  0.0886 -0.6643 -1.0038
  403TF     F9524905   5.646   0.828   5.116 -0.3445  0.0565  0.1263
  403TF     F9624906   5.831   0.735   5.133 -0.0777  0.1793  0.0479
  403TF     F9724907   5.682   0.663   4.996 -0.1072 -0.3084  0.5179
  403TF     N9824908   5.928   0.780   4.851 -0.4361  0.0704 -0.1570
  403TF     S9924909   6.074   0.833   4.838 -0.2233 -0.0836  0.0655
  403TF    O91024910   6.161   0.796   4.945 -0.3381  0.3202  0.1416
  403TF    O91124911   6.089   0.966   4.783 -0.1357 -0.5165  0.3847
  403TF     C9Z24912   6.143   0.742   4.700  0.3011  0.9823  0.6310
  403TF    F91324913   6.159   0.613   4.717  0.1904 -0.1019 -0.2970
  403TF    F91424914   6.056   0.753   4.600 -0.3231  0.2765  0.4618
  403TF    F91524915   6.257   0.795   4.661 -0.1879  0.0802  0.2555
  404TF     S9124916   4.942   6.759   4.643 -0.2662 -0.1322  0.0335
  404TF     O9224917   4.961   6.788   4.501  0.0087  0.2305  0.3918
  404TF     O9324918   5.037   6.671   4.705  0.1303 -0.5536  0.1586
  404TF     C9Z24919   4.960   6.920   4.730  0.0989  0.1253 -0.6339
  404TF     F9524920   4.944   6.914   4.860  0.1995 -0.0362 -0.3898
  404TF     F9624921   4.869   7.011   4.687  0.0134 -0.1548  0.2363
  404TF     F9724922   5.067   6.987   4.703 -0.1389 -0.0345 -0.2402
  404TF     N9824923   4.792   6.716   4.675 -0.5672  0.1461 -0.7935
  404TF     S9924924   4.677   6.736   4.572 -0.0868 -0.4236 -0.3410
  404TF    O91024925   4.665   6.612   4.492  0.3713 -0.4674  0.0680
  404TF    O91124926   4.680   6.858   4.497 -0.3922  0.1485  0.6282
  404TF     C9Z24927   4.527   6.741   4.675 -0.4212 -0.3579  0.1529
  404TF    F91324928   4.417   6.740   4.602 -0.1473 -0.3418  0.1307
  404TF    F91424929   4.516   6.645   4.764 -1.0702  0.4729  0.0439
  404TF    F91524930   4.530   6.860   4.744  0.6116 -0.1596 -0.1884
  405TF     S9124931   3.024   2.313   1.667  0.1572  0.1979 -0.0453
  405TF     O9224932   3.038   2.289   1.813  0.1745 -0.0188  0.2893
  405TF     O9324933   3.102   2.242   1.568 -0.4073  0.2507 -0.0593
  405TF     C9Z24934   2.849   2.247   1.639  0.1257 -0.5775 -0.6998
  405TF     F9524935   2.784   2.297   1.538  0.0554  0.5318  0.7818
  405TF     F9624936   2.778   2.280   1.737  0.0618 -0.1409  0.2539
  405TF     F9724937   2.840   2.119   1.629 -0.4821 -0.0893  0.0662
  405TF     N9824938   3.009   2.467   1.629 -0.0574 -1.0731 -0.1685
  405TF     S9924939   3.144   2.540   1.600 -0.0418  0.0183  0.0875
  405TF    O91024940   3.185   2.506   1.467 -0.3884 -0.3169 -0.0172
  405TF    O91124941   3.235   2.539   1.711  0.1122 -0.1556 -0.5312
  405TF     C9Z24942   3.088   2.718   1.584 -1.0523 -0.0002 -0.1130
  405TF    F91324943   2.985   2.725   1.501 -0.6136 -0.5868  0.4373
  405TF    F91424944   3.053   2.772   1.703  0.5232  0.4520 -0.2246
  405TF    F91524945   3.189   2.794   1.527  0.6047  0.0358 -0.4645
  406TF     S9124946   3.283   0.636   2.843 -0.2269 -0.2638  0.1808
  406TF     O9224947   3.408   0.581   2.800  0.2995  0.6023  0.2533
  406TF     O9324948   3.284   0.770   2.890 -0.0460  0.1238 -0.2514
  406TF     C9Z24949   3.168   0.624   2.699  1.1636 -0.8557 -0.3642
  406TF     F9524950   3.040   0.632   2.733  0.8996 -0.5286  0.3626
  406TF     F9624951   3.188   0.514   2.632  0.5259  0.6232 -0.3525
  406TF     F9724952   3.189   0.720   2.616 -0.3144 -0.2420  0.2547
  406TF     N9824953   3.217   0.549   2.949  0.7116 -0.1172 -0.1688
  406TF     S9924954   3.296   0.463   3.044 -0.2035  0.3644  0.0589
  406TF    O91024955   3.432   0.497   3.073  0.3775 -0.3674  0.0071
  406TF    O91124956   3.272   0.327   3.008  0.0612 -0.9593  0.2657
  406TF     C9Z24957   3.203   0.493   3.207  0.1907 -0.7010 -0.7760
  406TF    F91324958   3.239   0.605   3.269  0.7160  0.2307  0.3590
  406TF    F91424959   3.071   0.501   3.183 -0.1698 -0.1765  0.4814
  406TF    F91524960   3.218   0.393   3.293 -0.1782 -0.3344  0.2169
  407TF     S9124961   2.981   5.621   2.406 -0.2376 -0.0169 -0.2957
  407TF     O9224962   2.899   5.530   2.479 -0.0520  0.1208 -0.2344
  407TF     O9324963   3.110   5.574   2.360  0.1019  0.6365  0.2273
  407TF     C9Z24964   2.883   5.632   2.244  0.0903  0.1010 -0.1816
  407TF     F9524965   2.880   5.514   2.173  0.3621 -0.6019  0.0348
  407TF     F9624966   2.928   5.724   2.164 -0.2469  0.2538  0.0637
  407TF     F9724967   2.754   5.671   2.266 -0.5934 -0.0195  0.2366
  407TF     N9824968   2.976   5.769   2.456  0.4524  0.1459 -0.2995
  407TF     S9924969   3.100   5.859   2.490 -0.0242  0.1900  0.5550
  407TF    O91024970   3.229   5.801   2.448 -0.7153 -0.3924  0.0069
  407TF    O91124971   3.087   5.909   2.626 -0.0984 -0.1432  0.1605
  407TF     C9Z24972   3.057   6.001   2.380 -0.0505  0.8306 -0.1995
  407TF    F91324973   2.949   6.056   2.410 -0.2250 -0.1137 -0.3792
  407TF    F91424974   3.149   6.096   2.369  0.1952 -0.3555 -0.0678
  407TF    F91524975   3.037   5.940   2.263  0.0644  0.7809  0.0743
  408TF     S9124976   5.948   5.690   2.619 -0.5894 -0.0642 -0.1947
  408TF     O9224977   5.867   5.781   2.537  0.5908 -0.2831 -0.5575
  408TF     O9324978   6.056   5.623   2.556 -0.5369 -0.3987 -0.0419
  408TF     C9Z24979   6.035   5.791   2.752 -0.5284 -0.1615 -0.0073
  408TF     F9524980   5.960   5.833   2.858 -0.1473  0.3349  0.2329
  408TF     F9624981   6.081   5.901   2.703  0.0937 -0.2539  0.0183
  408TF     F9724982   6.136   5.718   2.804 -0.0878  0.8060 -0.2394
  408TF     N9824983   5.868   5.591   2.703  0.6108 -0.4580  0.2088
  408TF     S9924984   5.751   5.517   2.640 -0.1666 -0.1737  0.2527
  408TF    O91024985   5.764   5.373   2.656  0.0675 -0.1577 -0.2292
  408TF    O91124986   5.700   5.565   2.511 -0.4790  1.0630  0.2422
  408TF     C9Z24987   5.612   5.556   2.753 -0.0233 -0.0166 -0.2337
  408TF    F91324988   5.582   5.684   2.744 -0.1555  0.3997 -0.2363
  408TF    F91424989   5.506   5.480   2.717 -0.1025 -0.0003 -0.3335
  408TF    F91524990   5.631   5.536   2.882  0.0427  0.2305  0.5236
  409TF     S9124991   3.916   2.869   1.592 -0.1692 -0.0423  0.1498
  409TF     O9224992   3.963   2.959   1.486 -0.1968 -0.2461 -0.2894
  409TF     O9324993   3.875   2.736   1.555  0.4389 -0.5448  0.1671
  409TF     C9Z24994   4.069   2.839   1.692 -1.2944 -0.4315  0.5555
  409TF     F9524995   4.172   2.799   1.613 -0.0305  0.0593 -0.0972
  409TF     F9624996   4.046   2.753   1.789  0.2655  0.1928 -0.1765
  409TF     F9724997   4.105   2.953   1.743 -0.8781 -0.1351  0.1274
  409TF     N9824998   3.819   2.941   1.695 -0.3787  0.9868  0.5088
  409TF     S9924999   3.667   2.953   1.668 -0.2657  0.2515  0.2000
  409TF    O91025000   3.609   2.852   1.577 -0.4459 -0.0846  0.1725
  409TF    O91125001   3.615   3.085   1.660  0.3065  0.2624 -0.4701
  409TF     C9Z25002   3.595   2.898   1.836 -1.1224  0.5561 -0.2309
  409TF    F91325003   3.607   2.990   1.937 -0.0158 -0.3894 -0.2062
  409TF    F91425004   3.468   2.865   1.827 -0.3015  0.1363  0.0773
  409TF    F91525005   3.660   2.792   1.883  0.1146 -0.0892 -0.2664
  410TF     S9125006   5.419   3.456   5.257  0.1071 -0.1854 -0.1995
  410TF     O9225007   5.366   3.369   5.152  0.1803  0.3560 -0.3239
  410TF     O9325008   5.331   3.559   5.305  0.0494 -0.1650 -0.2491
  410TF     C9Z25009   5.455   3.349   5.409 -0.6481  0.0683  0.3659
  410TF     F9525010   5.526   3.417   5.500 -0.2914 -0.3806 -0.0954
  410TF     F9625011   5.528   3.248   5.380  0.3222  0.1643 -0.0117
  410TF     F9725012   5.347   3.301   5.465  0.1172  0.4035  0.2870
  410TF     N9825013   5.560   3.514   5.210 -0.3747  1.0455 -0.2753
  410TF     S9925014   5.621   3.473   5.074 -0.4016 -0.5024  0.2765
  410TF    O91025015   5.557   3.531   4.963  0.1456 -0.0277  0.4934
  410TF    O91125016   5.654   3.335   5.074  0.1547  0.6187 -0.0922
  410TF     C9Z25017   5.781   3.559   5.074  0.3535  0.3333 -0.0137
  410TF    F91325018   5.858   3.512   4.973  0.8171  0.0379 -0.0346
  410TF    F91425019   5.773   3.687   5.065 -0.0371 -0.3817 -0.0257
  410TF    F91525020   5.862   3.528   5.176 -0.1685 -0.0639  0.3619
   6.91954   6.91954   6.91954
